   * xtb version 6.5.1 (fef0646) compiled by 'conda@b96dff2e9fd6' on 2023-01-04
          program call               : xtb init.xyz --opt -c 0 -u 0 -P 16 --input xtb.inp

   ID    Z sym.   atoms
    1    7 N      1
    2    6 C      2-7, 9, 10
    3    9 F      8
    4   17 Cl     11
    5    1 H      12-22

          :  Hamiltonian                  GFN2-xTB          :
 * total energy  :   -34.9107170 Eh     change       -0.9450503E-09 Eh
 * total energy  :   -34.9188239 Eh     change       -0.8106892E-02 Eh
 * total energy  :   -34.9233724 Eh     change       -0.4548493E-02 Eh
 * total energy  :   -34.9263859 Eh     change       -0.3013512E-02 Eh
 * total energy  :   -34.9292510 Eh     change       -0.2865106E-02 Eh
 * total energy  :   -34.9311236 Eh     change       -0.1872608E-02 Eh
 * total energy  :   -34.9315946 Eh     change       -0.4709844E-03 Eh
 * total energy  :   -34.9319257 Eh     change       -0.3311570E-03 Eh
 * total energy  :   -34.9320125 Eh     change       -0.8680551E-04 Eh
 * total energy  :   -34.9320799 Eh     change       -0.6739995E-04 Eh
 * total energy  :   -34.9322962 Eh     change       -0.1387298E-04 Eh
 * total energy  :   -34.9323160 Eh     change       -0.1973663E-04 Eh
 * total energy  :   -34.9323460 Eh     change       -0.3002741E-04 Eh
 * total energy  :   -34.9323671 Eh     change       -0.2112075E-04 Eh
 * total energy  :   -34.9323834 Eh     change       -0.1624833E-04 Eh
 * total energy  :   -34.9323920 Eh     change       -0.8648125E-05 Eh
 * total energy  :   -34.9323979 Eh     change       -0.5848331E-05 Eh
 * total energy  :   -34.9324068 Eh     change       -0.8904157E-05 Eh
 * total energy  :   -34.9324110 Eh     change       -0.4248228E-05 Eh
   *** GEOMETRY OPTIMIZATION CONVERGED AFTER 23 ITERATIONS ***

 final structure:
================
22
 xtb: 6.5.1 (fef0646)
N            1.15081667606701        0.37370426171333        0.34860860322107
C            2.60535889355657        0.51352919287837        0.33377689631005
C            3.09101147238260        0.75706170320957       -1.09878981821230
C            4.59215802874982        0.76090708422889       -1.14732167665807
C            5.28879885318730       -0.43886356419233       -1.23651307006039
C            6.67108604489101       -0.45895713581161       -1.24520974744050
C            7.35250079977915        0.74165361516775       -1.16150484381509
F            8.70276805136035        0.73292358547215       -1.16859451240116
C            6.68947491577426        1.95095772923968       -1.07198341998985
C            5.30590920839602        1.94945467033402       -1.06356107276399
Cl           0.39945089863569       -1.84702480506226       -1.42279641621084
H            0.80863275861223        0.17449459296922        1.28240469734222
H            0.74307836716848       -0.81261454215807       -0.59192264577479
H            0.70324471445583        1.21860945100240        0.00822586799485
H            3.03126204733695       -0.42041155974863        0.70686907892388
H            2.95405696834294        1.33002318151907        0.98191142836872
H            2.70113557062299        1.71270518337140       -1.45404074744920
H            2.69537348475908       -0.03551530242722       -1.73349010620995
H            4.74087475562637       -1.36644094232740       -1.30648314797354
H            7.22098952767392       -1.38382406657616       -1.31752666594921
H            7.25225047241963        2.86899019929693       -1.01164582815426
H            4.77653749020167        2.88868746790124       -0.99699285309715

          :  Hamiltonian                  GFN2-xTB          :
         :: total energy             -34.932411022293 Eh    ::
         :: gradient norm              0.000585070795 Eh/a0 ::
         :: HOMO-LUMO gap              4.282258253321 eV    ::
         :: SCC energy               -35.368485442867 Eh    ::
         :: -> dispersion             -0.017571403160 Eh    ::
         :: repulsion energy           0.436061541094 Eh    ::

    * Orbital Energies and Occupations

         #    Occupation            Energy/Eh            Energy/eV
      -------------------------------------------------------------
         1        2.0000           -1.0228575             -27.8334
       ...           ...                  ...                  ...
        19        2.0000           -0.4982685             -13.5586
        20        2.0000           -0.4938307             -13.4378
        21        2.0000           -0.4922169             -13.3939
        22        2.0000           -0.4803724             -13.0716
        23        2.0000           -0.4709052             -12.8140
        24        2.0000           -0.4589934             -12.4898
        25        2.0000           -0.4539752             -12.3533
        26        2.0000           -0.4351175             -11.8401
        27        2.0000           -0.4237357             -11.5304
        28        2.0000           -0.4097632             -11.1502
        29        2.0000           -0.4041132             -10.9965
        30        2.0000           -0.3998337             -10.8800
        31        2.0000           -0.3996107             -10.8740 (HOMO)
        32                         -0.2422406              -6.5917 (LUMO)
        33                         -0.2371306              -6.4527
        34                         -0.1111578              -3.0248
        35                         -0.0620389              -1.6882
        36                          0.0098727               0.2687
        37                          0.0524583               1.4275
        38                          0.0608662               1.6563
        39                          0.0614695               1.6727
        40                          0.0668571               1.8193
        41                          0.0671415               1.8270
        42                          0.0860032               2.3403
       ...                                ...                  ...
        60                          0.6460551              17.5801
      -------------------------------------------------------------
                  HL-Gap            0.1573701 Eh            4.2823 eV

     #   Z          covCN         q      C6AA      α(0)
     1   7 N        2.688    -0.305    27.857     7.839
     2   6 C        3.733     0.011    20.482     6.459
     3   6 C        3.810    -0.081    22.039     6.683
     4   6 C        2.970     0.010    27.791     8.647
     5   6 C        2.930    -0.038    28.946     8.823
     6   6 C        2.916    -0.049    29.210     8.863
     7   6 C        2.788     0.167    24.387     8.089
     8   9 F        0.787    -0.228    11.529     4.011
     9   6 C        2.916    -0.050    29.242     8.867
    10   6 C        2.929    -0.039    28.957     8.825
    11  17 Cl       0.838    -0.482   115.043    16.408
    12   1 H        0.860     0.167     1.290     1.779
    13   1 H        0.894     0.333     0.620     1.232
    14   1 H        0.860     0.168     1.284     1.775
    15   1 H        0.924     0.055     2.259     2.351
    16   1 H        0.923     0.027     2.633     2.538
    17   1 H        0.924     0.047     2.357     2.401
    18   1 H        0.925     0.075     2.031     2.229
    19   1 H        0.926     0.053     2.285     2.364
    20   1 H        0.926     0.059     2.205     2.322
    21   1 H        0.926     0.057     2.230     2.335
    22   1 H        0.926     0.042     2.417     2.431

Wiberg/Mayer (AO) data.
largest (>0.10) Wiberg bond orders for each atom

     #   Z sym  total        # sym  WBO       # sym  WBO       # sym  WBO
 ---------------------------------------------------------------------------
     1   7 N    3.234 --     2 C    1.007    12 H    0.958    14 H    0.958
                            13 H    0.201
     2   6 C    3.974 --     1 N    1.007     3 C    0.989    15 H    0.974
                            16 H    0.973
     3   6 C    3.992 --     4 C    1.011     2 C    0.989    17 H    0.973
                            18 H    0.965
     4   6 C    3.989 --    10 C    1.415     5 C    1.408     3 C    1.011
     5   6 C    3.990 --     6 C    1.449     4 C    1.408    19 H    0.968
                             9 C    0.111
     6   6 C    3.990 --     5 C    1.449     7 C    1.394    20 H    0.967
                            10 C    0.109
     7   6 C    3.886 --     9 C    1.399     6 C    1.394     8 F    0.956
     8   9 F    1.086 --     7 C    0.956
     9   6 C    3.990 --    10 C    1.442     7 C    1.399    21 H    0.967
                             5 C    0.111
    10   6 C    3.991 --     9 C    1.442     4 C    1.415    22 H    0.969
                             6 C    0.109
    11  17 Cl   0.771 --    13 H    0.683
    12   1 H    0.971 --     1 N    0.958
    13   1 H    0.889 --    11 Cl   0.683     1 N    0.201
    14   1 H    0.972 --     1 N    0.958
    15   1 H    0.997 --     2 C    0.974
    16   1 H    0.999 --     2 C    0.973
    17   1 H    0.997 --     3 C    0.973
    18   1 H    0.994 --     3 C    0.965
    19   1 H    0.997 --     5 C    0.968
    20   1 H    0.996 --     6 C    0.967
    21   1 H    0.996 --     9 C    0.967
    22   1 H    0.998 --    10 C    0.969
 ---------------------------------------------------------------------------

molecular dipole:
                 x           y           z       tot (Debye)
 q only:       -0.317       1.395       1.084
   full:       -0.521       1.330       1.091       4.570

           -------------------------------------------------
          | TOTAL ENERGY              -34.932411022293 Eh   |
          | GRADIENT NORM               0.000585070795 Eh/α |
          | HOMO-LUMO GAP               4.282258253321 eV   |
           -------------------------------------------------

 * finished run on 2023/01/23 at 19:38:31.545
