   * xtb version 6.5.1 (fef0646) compiled by 'conda@b96dff2e9fd6' on 2023-01-04
          program call               : xtb init.xyz --opt -c 1 -u 0 -P 16 --alpb water

   ID    Z sym.   atoms
    1    7 N      1
    2    6 C      2-8
    3    1 H      9-24

      * Solvation model:               ALPB
        Solvent                        water
        Solvent mass                       1.8000E+01 g/mol
          :  Hamiltonian                  GFN2-xTB          :
 * total energy  :   -25.7651495 Eh     change       -0.4900258E-10 Eh
 * total energy  :   -25.7666187 Eh     change       -0.1469230E-02 Eh
 * total energy  :   -25.7669887 Eh     change       -0.3699812E-03 Eh
 * total energy  :   -25.7670600 Eh     change       -0.7131381E-04 Eh
 * total energy  :   -25.7670893 Eh     change       -0.2926625E-04 Eh
 * total energy  :   -25.7671000 Eh     change       -0.1071820E-04 Eh
 * total energy  :   -25.7671078 Eh     change       -0.7784197E-05 Eh
 * total energy  :   -25.7671145 Eh     change       -0.6722444E-05 Eh
 * total energy  :   -25.7671218 Eh     change       -0.7250828E-05 Eh
 * total energy  :   -25.7671277 Eh     change       -0.5937929E-05 Eh
 * total energy  :   -25.7671311 Eh     change       -0.3402884E-05 Eh
   *** GEOMETRY OPTIMIZATION CONVERGED AFTER 11 ITERATIONS ***

 final structure:
================
24
 xtb: 6.5.1 (fef0646)
N            2.21865690044026       -1.54536650952485        0.10182982774161
C            2.60265703833569       -0.11631280891294        0.01008047688736
C            3.12245552862228        0.24724276947800       -1.38239909210015
C            4.44209583432003       -0.46145904006065       -1.70334747277382
C            4.95740153957411       -0.04292202495541       -3.07939040801217
C            5.14978857917031        1.46875682642822       -3.14778617460520
C            3.83665381733485        2.17974333378645       -2.83422343455015
C            3.32132327430734        1.76428576175843       -1.45901104006658
H            1.82514730131241       -1.75342747515074        1.02632950453100
H            3.04026610047245       -2.14174829720271       -0.04702948444832
H            1.51929864035893       -1.76935947231040       -0.61560217190272
H            3.37452377486912        0.09394807443898        0.75048081648992
H            1.73131809109357        0.49805343634410        0.23655297445305
H            2.38044829795811       -0.03180950058727       -2.13712119240754
H            4.32035661046795       -1.54522152200191       -1.70828313762890
H            5.19114697915232       -0.19794751750919       -0.95410156946921
H            4.24389358858293       -0.34644236917407       -3.84921189583910
H            5.90380731667496       -0.54503746085779       -3.28993985911879
H            5.50265159216627        1.75673705000185       -4.14021608817645
H            5.91118718231604        1.77478413678780       -2.42632527203606
H            3.09794433642519        1.92644700865325       -3.59828552642751
H            3.98317300771560        3.26115084468756       -2.86392254418465
H            2.37937808975252        2.27714653774181       -1.25776894342754
H            4.04292657857674        2.07774821814145       -0.70211829292805

          :  Hamiltonian                  GFN2-xTB          :
         :: total energy             -25.767131116021 Eh    ::
         :: gradient norm              0.000208871620 Eh/a0 ::
         :: HOMO-LUMO gap              9.824361501656 eV    ::
         :: SCC energy               -26.136760794504 Eh    ::
         :: -> dispersion             -0.015488479703 Eh    ::
         :: -> Gsolv                  -0.115898434336 Eh    ::
         :: repulsion energy           0.369539852604 Eh    ::

    * Orbital Energies and Occupations

         #    Occupation            Energy/Eh            Energy/eV
      -------------------------------------------------------------
         1        2.0000           -0.6924006             -18.8412
       ...           ...                  ...                  ...
        12        2.0000           -0.5192508             -14.1295
        13        2.0000           -0.5053619             -13.7516
        14        2.0000           -0.4974905             -13.5374
        15        2.0000           -0.4954615             -13.4822
        16        2.0000           -0.4791050             -13.0371
        17        2.0000           -0.4688343             -12.7576
        18        2.0000           -0.4652231             -12.6594
        19        2.0000           -0.4592092             -12.4957
        20        2.0000           -0.4381050             -11.9214
        21        2.0000           -0.4363929             -11.8749
        22        2.0000           -0.4207017             -11.4479
        23        2.0000           -0.4170718             -11.3491
        24        2.0000           -0.4122710             -11.2185 (HOMO)
        25                         -0.0512324              -1.3941 (LUMO)
        26                          0.0406215               1.1054
        27                          0.0568289               1.5464
        28                          0.0774536               2.1076
        29                          0.0930914               2.5331
        30                          0.1050182               2.8577
        31                          0.1111361               3.0242
        32                          0.1174063               3.1948
        33                          0.1196755               3.2565
        34                          0.1412580               3.8438
        35                          0.1474686               4.0128
       ...                                ...                  ...
        48                          0.3104517               8.4478
      -------------------------------------------------------------
                  HL-Gap            0.3610386 Eh            9.8244 eV

     #   Z          covCN         q      C6AA      α(0)
     1   7 N        3.484    -0.157    24.392     7.335
     2   6 C        3.736    -0.045    21.464     6.612
     3   6 C        3.855    -0.031    21.084     6.531
     4   6 C        3.807    -0.079    21.994     6.676
     5   6 C        3.805    -0.062    21.694     6.631
     6   6 C        3.805    -0.061    21.667     6.626
     7   6 C        3.805    -0.061    21.665     6.626
     8   6 C        3.810    -0.072    21.864     6.656
     9   1 H        0.859     0.318     0.661     1.274
    10   1 H        0.859     0.301     0.712     1.322
    11   1 H        0.859     0.309     0.688     1.300
    12   1 H        0.925     0.108     1.714     2.048
    13   1 H        0.925     0.109     1.709     2.045
    14   1 H        0.924     0.064     2.156     2.296
    15   1 H        0.924     0.053     2.286     2.364
    16   1 H        0.924     0.051     2.313     2.379
    17   1 H        0.924     0.036     2.505     2.475
    18   1 H        0.924     0.027     2.632     2.537
    19   1 H        0.924     0.017     2.784     2.609
    20   1 H        0.924     0.031     2.567     2.505
    21   1 H        0.924     0.035     2.523     2.484
    22   1 H        0.924     0.023     2.689     2.564
    23   1 H        0.924     0.043     2.415     2.430
    24   1 H        0.924     0.046     2.376     2.411

Wiberg/Mayer (AO) data.
largest (>0.10) Wiberg bond orders for each atom

     #   Z sym  total        # sym  WBO       # sym  WBO       # sym  WBO
 ---------------------------------------------------------------------------
     1   7 N    3.655 --     2 C    0.967    10 H    0.891    11 H    0.890
                             9 H    0.886
     2   6 C    3.926 --     3 C    0.998     1 N    0.967    13 H    0.965
                            12 H    0.965
     3   6 C    3.992 --     2 C    0.998     4 C    0.997     8 C    0.994
                            14 H    0.962
     4   6 C    3.995 --     5 C    1.007     3 C    0.997    16 H    0.975
                            15 H    0.971
     5   6 C    3.997 --     6 C    1.009     4 C    1.007    18 H    0.977
                            17 H    0.977
     6   6 C    3.997 --     5 C    1.009     7 C    1.009    19 H    0.978
                            20 H    0.977
     7   6 C    3.997 --     6 C    1.009     8 C    1.008    22 H    0.977
                            21 H    0.977
     8   6 C    3.996 --     7 C    1.008     3 C    0.994    24 H    0.976
                            23 H    0.975
     9   1 H    0.898 --     1 N    0.886
    10   1 H    0.910 --     1 N    0.891
    11   1 H    0.905 --     1 N    0.890
    12   1 H    0.988 --     2 C    0.965
    13   1 H    0.988 --     2 C    0.965
    14   1 H    0.996 --     3 C    0.962
    15   1 H    0.997 --     4 C    0.971
    16   1 H    0.997 --     4 C    0.975
    17   1 H    0.999 --     5 C    0.977
    18   1 H    0.999 --     5 C    0.977
    19   1 H    0.999 --     6 C    0.978
    20   1 H    0.999 --     6 C    0.977
    21   1 H    0.999 --     7 C    0.977
    22   1 H    0.999 --     7 C    0.977
    23   1 H    0.998 --     8 C    0.975
    24   1 H    0.998 --     8 C    0.976
 ---------------------------------------------------------------------------

molecular dipole:
                 x           y           z       tot (Debye)
 q only:        4.204      -2.749       0.242
   full:        4.259      -2.772       0.142      12.921

           -------------------------------------------------
          | TOTAL ENERGY              -25.767131116021 Eh   |
          | GRADIENT NORM               0.000208871620 Eh/α |
          | HOMO-LUMO GAP               9.824361501656 eV   |
           -------------------------------------------------

 * finished run on 2023/01/24 at 15:21:18.526
