   * xtb version 6.5.1 (fef0646) compiled by 'conda@b96dff2e9fd6' on 2023-01-04
          program call               : xtb init.xyz --opt -c 1 -u 0 -P 16

   ID    Z sym.   atoms
    1    7 N      1
    2    6 C      2-7
    3    1 H      8-23

          :  Hamiltonian                  GFN2-xTB          :
 * total energy  :   -23.4965671 Eh     change       -0.7513279E-10 Eh
 * total energy  :   -23.4976376 Eh     change       -0.1070528E-02 Eh
 * total energy  :   -23.4977415 Eh     change       -0.1039443E-03 Eh
 * total energy  :   -23.4977580 Eh     change       -0.1645667E-04 Eh
 * total energy  :   -23.4977603 Eh     change       -0.2293840E-05 Eh
   *** GEOMETRY OPTIMIZATION CONVERGED AFTER 5 ITERATIONS ***

 final structure:
================
23
 xtb: 6.5.1 (fef0646)
N            0.90687778921047        0.05650335171861        0.09419248259279
C            2.40621766698467        0.06395313007387        0.07846382808384
C            2.92293201300827        0.53497230986990       -1.27235242827745
C            4.45449142258211        0.54416490280595       -1.29785489953076
C            4.98809160720648        1.01565413454471       -2.64972948073683
C            6.51520182304862        1.02766955276018       -2.68463446238199
C            7.03826180734630        1.49892846072212       -4.03558299613980
H            0.53933569201894       -0.25959064445979        1.00030012319505
H            0.55672316659538       -0.56863207035411       -0.64403535047473
H            0.55459995524134        1.00412896328924       -0.09625261504390
H            2.75773779280336       -0.94697553882833        0.28855371809759
H            2.75555431942021        0.72655132713573        0.87132128506557
H            2.56254866622853        1.54441006928291       -1.47975236989093
H            2.56294759243701       -0.12699113538744       -2.06235119043112
H            4.82808406536499       -0.46049680386751       -1.09436791704529
H            4.82779766182465        1.20455839114264       -0.51373561331898
H            4.61787162319906        2.02186398331436       -2.85625586872703
H            4.61771861119202        0.35622217092870       -3.43722860181584
H            6.88949347809397        0.02262113486616       -2.48071013651561
H            6.88967972398112        1.68767211128257       -1.89980248790586
H            6.69318905726945        0.84213916484342       -4.83060194867625
H            8.12449054391588        1.50054356565813       -4.04069018549577
H            6.69344392102715        2.50781946865798       -4.24945288462671

          :  Hamiltonian                  GFN2-xTB          :
         :: total energy             -23.497760281634 Eh    ::
         :: gradient norm              0.000495661138 Eh/a0 ::
         :: HOMO-LUMO gap              6.632846037195 eV    ::
         :: SCC energy               -23.841767362565 Eh    ::
         :: -> dispersion             -0.011429324431 Eh    ::
         :: repulsion energy           0.344064271945 Eh    ::

    * Orbital Energies and Occupations

         #    Occupation            Energy/Eh            Energy/eV
      -------------------------------------------------------------
         1        2.0000           -0.8979994             -24.4358
       ...           ...                  ...                  ...
        10        2.0000           -0.6741901             -18.3456
        11        2.0000           -0.6574331             -17.8897
        12        2.0000           -0.6411798             -17.4474
        13        2.0000           -0.6377914             -17.3552
        14        2.0000           -0.6121947             -16.6587
        15        2.0000           -0.6047580             -16.4563
        16        2.0000           -0.5871114             -15.9761
        17        2.0000           -0.5743974             -15.6301
        18        2.0000           -0.5611651             -15.2701
        19        2.0000           -0.5417099             -14.7407
        20        2.0000           -0.5333517             -14.5132
        21        2.0000           -0.5200702             -14.1518
        22        2.0000           -0.5117757             -13.9261 (HOMO)
        23                         -0.2680231              -7.2933 (LUMO)
        24                         -0.1647002              -4.4817
        25                         -0.1057912              -2.8787
        26                         -0.1041439              -2.8339
        27                         -0.0608706              -1.6564
        28                         -0.0400379              -1.0895
        29                         -0.0184119              -0.5010
        30                         -0.0057766              -0.1572
        31                          0.0104151               0.2834
        32                          0.0327038               0.8899
        33                          0.0336704               0.9162
       ...                                ...                  ...
        44                          0.2180462               5.9333
      -------------------------------------------------------------
                  HL-Gap            0.2437526 Eh            6.6328 eV

     #   Z          covCN         q      C6AA      α(0)
     1   7 N        3.482    -0.128    23.767     7.241
     2   6 C        3.731    -0.034    21.273     6.584
     3   6 C        3.803    -0.081    22.041     6.684
     4   6 C        3.804    -0.067    21.778     6.644
     5   6 C        3.804    -0.065    21.736     6.637
     6   6 C        3.801    -0.057    21.597     6.616
     7   6 C        3.753    -0.109    22.643     6.786
     8   1 H        0.859     0.270     0.811     1.410
     9   1 H        0.859     0.272     0.802     1.402
    10   1 H        0.859     0.272     0.802     1.402
    11   1 H        0.924     0.107     1.724     2.053
    12   1 H        0.924     0.107     1.724     2.053
    13   1 H        0.924     0.062     2.177     2.307
    14   1 H        0.924     0.062     2.177     2.308
    15   1 H        0.924     0.050     2.324     2.384
    16   1 H        0.924     0.050     2.323     2.384
    17   1 H        0.924     0.042     2.423     2.434
    18   1 H        0.924     0.042     2.424     2.435
    19   1 H        0.924     0.037     2.484     2.465
    20   1 H        0.924     0.037     2.484     2.465
    21   1 H        0.925     0.041     2.439     2.442
    22   1 H        0.925     0.048     2.342     2.393
    23   1 H        0.925     0.041     2.439     2.442

Wiberg/Mayer (AO) data.
largest (>0.10) Wiberg bond orders for each atom

     #   Z sym  total        # sym  WBO       # sym  WBO       # sym  WBO
 ---------------------------------------------------------------------------
     1   7 N    3.675 --     2 C    0.919     8 H    0.913    10 H    0.910
                             9 H    0.910
     2   6 C    3.883 --     3 C    1.008    12 H    0.967    11 H    0.967
                             1 N    0.919
     3   6 C    3.979 --     2 C    1.008     4 C    0.993    13 H    0.972
                            14 H    0.972
     4   6 C    3.987 --     5 C    1.004     3 C    0.993    16 H    0.976
                            15 H    0.976
     5   6 C    3.993 --     6 C    1.006     4 C    1.004    17 H    0.977
                            18 H    0.977
     6   6 C    3.995 --     7 C    1.019     5 C    1.006    20 H    0.978
                            19 H    0.978
     7   6 C    3.994 --     6 C    1.019    21 H    0.987    23 H    0.987
                            22 H    0.986
     8   1 H    0.927 --     1 N    0.913
     9   1 H    0.926 --     1 N    0.910
    10   1 H    0.926 --     1 N    0.910
    11   1 H    0.989 --     2 C    0.967
    12   1 H    0.989 --     2 C    0.967
    13   1 H    0.996 --     3 C    0.972
    14   1 H    0.996 --     3 C    0.972
    15   1 H    0.998 --     4 C    0.976
    16   1 H    0.998 --     4 C    0.976
    17   1 H    0.998 --     5 C    0.977
    18   1 H    0.998 --     5 C    0.977
    19   1 H    0.999 --     6 C    0.978
    20   1 H    0.999 --     6 C    0.978
    21   1 H    0.998 --     7 C    0.987
    22   1 H    0.997 --     7 C    0.986
    23   1 H    0.998 --     7 C    0.987
 ---------------------------------------------------------------------------

molecular dipole:
                 x           y           z       tot (Debye)
 q only:        2.802       0.276      -0.304
   full:        2.457       0.234      -0.185       6.291

           -------------------------------------------------
          | TOTAL ENERGY              -23.497760281634 Eh   |
          | GRADIENT NORM               0.000495661138 Eh/α |
          | HOMO-LUMO GAP               6.632846037195 eV   |
           -------------------------------------------------

 * finished run on 2023/01/23 at 14:15:50.955
