   * xtb version 6.5.1 (fef0646) compiled by 'conda@b96dff2e9fd6' on 2023-01-04
          program call               : xtb init.xyz --opt -c 0 -u 0 -P 16

   ID    Z sym.   atoms
    1    7 N      1
    2    6 C      2-8
    3   17 Cl     9
    4    1 H      10-19

          :  Hamiltonian                  GFN2-xTB          :
 * total energy  :   -27.5048246 Eh     change       -0.6644001E-09 Eh
 * total energy  :   -27.5183104 Eh     change       -0.1348579E-01 Eh
 * total energy  :   -27.5236977 Eh     change       -0.5387246E-02 Eh
 * total energy  :   -27.5275011 Eh     change       -0.3803394E-02 Eh
 * total energy  :   -27.5301946 Eh     change       -0.2693534E-02 Eh
 * total energy  :   -27.5324456 Eh     change       -0.2251012E-02 Eh
 * total energy  :   -27.5332017 Eh     change       -0.7561406E-03 Eh
 * total energy  :   -27.5337322 Eh     change       -0.5304395E-03 Eh
 * total energy  :   -27.5339772 Eh     change       -0.2450521E-03 Eh
 * total energy  :   -27.5341247 Eh     change       -0.1475075E-03 Eh
 * total energy  :   -27.5356338 Eh     change       -0.3261828E-04 Eh
 * total energy  :   -27.5356357 Eh     change       -0.1853483E-05 Eh
 * total energy  :   -27.5356685 Eh     change       -0.3287222E-04 Eh
 * total energy  :   -27.5356911 Eh     change       -0.2252704E-04 Eh
 * total energy  :   -27.5357060 Eh     change       -0.1494137E-04 Eh
 * total energy  :   -27.5357164 Eh     change       -0.1037379E-04 Eh
 * total energy  :   -27.5357234 Eh     change       -0.7019825E-05 Eh
 * total energy  :   -27.5357322 Eh     change       -0.8830674E-05 Eh
 * total energy  :   -27.5357357 Eh     change       -0.3501777E-05 Eh
   *** GEOMETRY OPTIMIZATION CONVERGED AFTER 48 ITERATIONS ***

 final structure:
================
19
 xtb: 6.5.1 (fef0646)
N            1.52031048917771        0.23076042073773       -1.04826877644597
C            2.51054855777742        0.03565996996777        0.01947589285119
C            3.00893703549157       -1.38530792735528        0.03072863437796
C            4.35605207330245       -1.66182033483128       -0.15919625162762
C            4.81313429628264       -2.96871540340332       -0.15691040648929
C            3.92381388192958       -4.01252698738740        0.02752927168539
C            2.57755422430032       -3.74376648906338        0.21376573433707
C            2.12090942580976       -2.43825277944328        0.21835044157900
Cl          -1.16089449182760       -0.77690636856266       -0.42367245129050
H            1.32987401308352        1.21816470718981       -1.18302915077150
H            0.11711898070254       -0.35447276311626       -0.70701810358114
H            1.85728343292962       -0.16028933178728       -1.92212709350721
H            2.01161057075646        0.26367678859282        0.96635009853917
H            3.36488659093700        0.71732528559764       -0.09096279573267
H            5.05613397504182       -0.85043509068612       -0.30430587968405
H            5.86462290070951       -3.17031077206708       -0.30082723317096
H            4.27939112884990       -5.03231207075148        0.02768454206223
H            1.88008725495780       -4.55525551563752        0.35795327718463
H            1.07317565978257       -2.22936533798758        0.36415024969527

          :  Hamiltonian                  GFN2-xTB          :
         :: total energy             -27.535735725301 Eh    ::
         :: gradient norm              0.000442463176 Eh/a0 ::
         :: HOMO-LUMO gap              4.465787966635 eV    ::
         :: SCC energy               -27.930568401422 Eh    ::
         :: -> dispersion             -0.015143591122 Eh    ::
         :: repulsion energy           0.394774775222 Eh    ::

    * Orbital Energies and Occupations

         #    Occupation            Energy/Eh            Energy/eV
      -------------------------------------------------------------
         1        2.0000           -1.0188563             -27.7245
       ...           ...                  ...                  ...
        13        2.0000           -0.4993474             -13.5879
        14        2.0000           -0.4977740             -13.5451
        15        2.0000           -0.4836532             -13.1609
        16        2.0000           -0.4810023             -13.0887
        17        2.0000           -0.4756959             -12.9443
        18        2.0000           -0.4729264             -12.8690
        19        2.0000           -0.4309823             -11.7276
        20        2.0000           -0.4259989             -11.5920
        21        2.0000           -0.4094865             -11.1427
        22        2.0000           -0.4067805             -11.0691
        23        2.0000           -0.4004905             -10.8979
        24        2.0000           -0.3956721             -10.7668
        25        2.0000           -0.3951492             -10.7526 (HOMO)
        26                         -0.2310345              -6.2868 (LUMO)
        27                         -0.2276100              -6.1936
        28                         -0.1022540              -2.7825
        29                         -0.0558524              -1.5198
        30                          0.0283838               0.7724
        31                          0.0647407               1.7617
        32                          0.0657604               1.7894
        33                          0.0707413               1.9250
        34                          0.0714109               1.9432
        35                          0.0840904               2.2882
        36                          0.0960446               2.6135
       ...                                ...                  ...
        51                          0.6593466              17.9417
      -------------------------------------------------------------
                  HL-Gap            0.1641147 Eh            4.4658 eV

     #   Z          covCN         q      C6AA      α(0)
     1   7 N        2.696    -0.303    27.791     7.830
     2   6 C        3.737     0.002    20.621     6.480
     3   6 C        2.971     0.003    27.966     8.674
     4   6 C        2.924    -0.039    28.960     8.825
     5   6 C        2.919    -0.030    28.749     8.793
     6   6 C        2.920    -0.030    28.751     8.793
     7   6 C        2.920    -0.027    28.670     8.781
     8   6 C        2.924    -0.039    28.960     8.825
     9  17 Cl       0.837    -0.485   115.139    16.415
    10   1 H        0.860     0.167     1.290     1.779
    11   1 H        0.902     0.332     0.622     1.234
    12   1 H        0.860     0.167     1.291     1.780
    13   1 H        0.924     0.059     2.210     2.325
    14   1 H        0.923     0.029     2.602     2.523
    15   1 H        0.925     0.027     2.623     2.533
    16   1 H        0.926     0.032     2.554     2.499
    17   1 H        0.926     0.033     2.538     2.491
    18   1 H        0.926     0.038     2.475     2.460
    19   1 H        0.926     0.061     2.181     2.310

Wiberg/Mayer (AO) data.
largest (>0.10) Wiberg bond orders for each atom

     #   Z sym  total        # sym  WBO       # sym  WBO       # sym  WBO
 ---------------------------------------------------------------------------
     1   7 N    3.239 --     2 C    0.994    10 H    0.959    12 H    0.958
                            11 H    0.208
     2   6 C    3.973 --     3 C    1.005     1 N    0.994    14 H    0.972
                            13 H    0.964
     3   6 C    3.988 --     4 C    1.422     8 C    1.409     2 C    1.005
                             6 C    0.110
     4   6 C    3.992 --     5 C    1.439     3 C    1.422    15 H    0.969
                             7 C    0.110
     5   6 C    3.992 --     6 C    1.444     4 C    1.439    16 H    0.971
                             8 C    0.113
     6   6 C    3.992 --     5 C    1.444     7 C    1.435    17 H    0.971
                             3 C    0.110
     7   6 C    3.992 --     8 C    1.450     6 C    1.435    18 H    0.971
                             4 C    0.110
     8   6 C    3.990 --     7 C    1.450     3 C    1.409    19 H    0.964
                             5 C    0.113
     9  17 Cl   0.769 --    11 H    0.676
    10   1 H    0.971 --     1 N    0.959
    11   1 H    0.890 --     9 Cl   0.676     1 N    0.208
    12   1 H    0.972 --     1 N    0.958
    13   1 H    0.996 --     2 C    0.964
    14   1 H    0.999 --     2 C    0.972
    15   1 H    0.999 --     4 C    0.969
    16   1 H    0.999 --     5 C    0.971
    17   1 H    0.998 --     6 C    0.971
    18   1 H    0.998 --     7 C    0.971
    19   1 H    0.996 --     8 C    0.964
 ---------------------------------------------------------------------------

molecular dipole:
                 x           y           z       tot (Debye)
 q only:        1.761       0.497      -0.305
   full:        1.585       0.613      -0.414       4.447

           -------------------------------------------------
          | TOTAL ENERGY              -27.535735725301 Eh   |
          | GRADIENT NORM               0.000442463176 Eh/α |
          | HOMO-LUMO GAP               4.465787966635 eV   |
           -------------------------------------------------

 * finished run on 2023/01/23 at 13:45:27.055
