   * xtb version 6.5.1 (fef0646) compiled by 'conda@b96dff2e9fd6' on 2023-01-04
          program call               : xtb init.xyz --opt -c 1 -u 0 -P 16 --alpb water

   ID    Z sym.   atoms
    1    7 N      1
    2    6 C      2-7
    3    1 H      8-15

      * Solvation model:               ALPB
        Solvent                        water
        Solvent mass                       1.8000E+01 g/mol
          :  Hamiltonian                  GFN2-xTB          :
 * total energy  :   -19.4951897 Eh     change       -0.1771738E-10 Eh
 * total energy  :   -19.4965154 Eh     change       -0.1325740E-02 Eh
 * total energy  :   -19.4966245 Eh     change       -0.1090887E-03 Eh
 * total energy  :   -19.4966348 Eh     change       -0.1027617E-04 Eh
 * total energy  :   -19.4966369 Eh     change       -0.2158337E-05 Eh
   *** GEOMETRY OPTIMIZATION CONVERGED AFTER 5 ITERATIONS ***

 final structure:
================
15
 xtb: 6.5.1 (fef0646)
N            2.31342782403911        0.08996450798283        0.10168750855215
C            0.85114721818182        0.04317734054162        0.02404662005278
C            0.20314011169642       -1.17969343643035        0.00616583841066
C           -1.18089440527129       -1.21416125923458       -0.05803572374599
C           -1.90434184090825       -0.03395578256093       -0.10321475901416
C           -1.24672826691642        1.18616674537502       -0.08652852404756
C            0.13560120162801        1.22946248018674       -0.02315445141880
H            2.70533761545940       -0.85683625667497        0.01089800725461
H            2.70011545263394        0.68336506147985       -0.64564207452065
H            2.61776451054428        0.48403433120489        1.00393798907197
H            0.75786162522835       -2.10374753203947        0.04218563826941
H           -1.69409358941818       -2.16268023245759       -0.07238769350404
H           -2.98165868949514       -0.06412351302281       -0.15230725108248
H           -1.81208830418098        2.10393400476001       -0.12279269998095
H            0.64172953677891        2.18136354088973       -0.01014842429696

          :  Hamiltonian                  GFN2-xTB          :
         :: total energy             -19.496636915009 Eh    ::
         :: gradient norm              0.000431002665 Eh/a0 ::
         :: HOMO-LUMO gap              4.848281920606 eV    ::
         :: SCC energy               -19.854653805080 Eh    ::
         :: -> dispersion             -0.009532799072 Eh    ::
         :: -> Gsolv                  -0.115300047100 Eh    ::
         :: repulsion energy           0.357998182232 Eh    ::

    * Orbital Energies and Occupations

         #    Occupation            Energy/Eh            Energy/eV
      -------------------------------------------------------------
         1        2.0000           -0.7037404             -19.1498
       ...           ...                  ...                  ...
         6        2.0000           -0.6034502             -16.4207
         7        2.0000           -0.5913801             -16.0923
         8        2.0000           -0.5672438             -15.4355
         9        2.0000           -0.5637580             -15.3406
        10        2.0000           -0.5270736             -14.3424
        11        2.0000           -0.5062226             -13.7750
        12        2.0000           -0.4971819             -13.5290
        13        2.0000           -0.4929340             -13.4134
        14        2.0000           -0.4907687             -13.3545
        15        2.0000           -0.4464632             -12.1489
        16        2.0000           -0.4360497             -11.8655
        17        2.0000           -0.4215820             -11.4718
        18        2.0000           -0.4209824             -11.4555 (HOMO)
        19                         -0.2428113              -6.6072 (LUMO)
        20                         -0.2397237              -6.5232
        21                         -0.1107869              -3.0147
        22                         -0.0514773              -1.4008
        23                          0.0503845               1.3710
        24                          0.1136750               3.0933
        25                          0.1278476               3.4789
        26                          0.1464278               3.9845
        27                          0.1479321               4.0254
        28                          0.1792549               4.8778
        29                          0.1822003               4.9579
       ...                                ...                  ...
        36                          0.6473076              17.6141
      -------------------------------------------------------------
                  HL-Gap            0.1781711 Eh            4.8483 eV

     #   Z          covCN         q      C6AA      α(0)
     1   7 N        3.488    -0.168    24.632     7.371
     2   6 C        2.904     0.066    26.513     8.443
     3   6 C        2.919    -0.048    29.198     8.861
     4   6 C        2.921    -0.027    28.679     8.782
     5   6 C        2.919    -0.029    28.725     8.789
     6   6 C        2.921    -0.027    28.678     8.782
     7   6 C        2.920    -0.050    29.234     8.866
     8   1 H        0.859     0.317     0.664     1.277
     9   1 H        0.859     0.325     0.645     1.258
    10   1 H        0.859     0.327     0.637     1.251
    11   1 H        0.926     0.082     1.956     2.187
    12   1 H        0.926     0.052     2.292     2.368
    13   1 H        0.926     0.043     2.414     2.429
    14   1 H        0.926     0.052     2.290     2.366
    15   1 H        0.926     0.085     1.931     2.173

Wiberg/Mayer (AO) data.
largest (>0.10) Wiberg bond orders for each atom

     #   Z sym  total        # sym  WBO       # sym  WBO       # sym  WBO
 ---------------------------------------------------------------------------
     1   7 N    3.648 --     2 C    0.967     8 H    0.882     9 H    0.875
                            10 H    0.871
     2   6 C    3.941 --     3 C    1.422     7 C    1.413     1 N    0.967
                             5 C    0.106
     3   6 C    3.987 --     4 C    1.433     2 C    1.422    11 H    0.961
                             6 C    0.112
     4   6 C    3.991 --     5 C    1.445     3 C    1.433    12 H    0.970
                             7 C    0.114
     5   6 C    3.992 --     4 C    1.445     6 C    1.438    13 H    0.971
                             2 C    0.106
     6   6 C    3.991 --     7 C    1.442     5 C    1.438    14 H    0.970
                             3 C    0.112
     7   6 C    3.987 --     6 C    1.442     2 C    1.413    15 H    0.962
                             4 C    0.114
     8   1 H    0.899 --     1 N    0.882
     9   1 H    0.895 --     1 N    0.875
    10   1 H    0.893 --     1 N    0.871
    11   1 H    0.993 --     3 C    0.961
    12   1 H    0.997 --     4 C    0.970
    13   1 H    0.997 --     5 C    0.971
    14   1 H    0.997 --     6 C    0.970
    15   1 H    0.993 --     7 C    0.962
 ---------------------------------------------------------------------------

molecular dipole:
                 x           y           z       tot (Debye)
 q only:        4.098       0.189       0.190
   full:        4.073       0.186       0.190      10.375

           -------------------------------------------------
          | TOTAL ENERGY              -19.496636915009 Eh   |
          | GRADIENT NORM               0.000431002665 Eh/α |
          | HOMO-LUMO GAP               4.848281920606 eV   |
           -------------------------------------------------

 * finished run on 2023/01/24 at 14:55:51.880
