   * xtb version 6.5.1 (fef0646) compiled by 'conda@b96dff2e9fd6' on 2023-01-04
          program call               : xtb init.xyz --opt -c 1 -u 0 -P 16 --input xtb.inp

   ID    Z sym.   atoms
    1    7 N      1
    2    6 C      2-5
    3    1 H      6-17

          :  Hamiltonian                  GFN2-xTB          :
 * total energy  :   -17.1674740 Eh     change       -0.4617107E-10 Eh
 * total energy  :   -17.1683953 Eh     change       -0.9212903E-03 Eh
 * total energy  :   -17.1684952 Eh     change       -0.9990259E-04 Eh
 * total energy  :   -17.1685091 Eh     change       -0.1394790E-04 Eh
 * total energy  :   -17.1685108 Eh     change       -0.1642467E-05 Eh
   *** GEOMETRY OPTIMIZATION CONVERGED AFTER 5 ITERATIONS ***

 final structure:
================
17
 xtb: 6.5.1 (fef0646)
N            0.92875916079406       -0.06066097970546        0.09012615508246
C            2.42758982489077       -0.04279569286731        0.08723266853489
C            2.94413388275001        1.37334812075201       -0.11588092015414
C            4.47632036556892        1.40176026214477       -0.11943389880002
C            4.99855830758133        2.81834713106938       -0.32271647938282
H            0.56233845019517       -1.01107421119453        0.22623046338536
H            0.57648061903369        0.30728253304707       -0.80372403259350
H            0.57685262062733        0.54324943025670        0.84504408814821
H            2.77813504290714       -0.69404382144702       -0.71454682204264
H            2.77851603114532       -0.44257999355922        1.03953418497238
H            2.58404175909298        2.02208011157679        0.68503172884710
H            2.58462057067091        1.77057428263668       -1.06716033217207
H            4.84886128450596        0.75910537153033       -0.91808348839675
H            4.84824808990444        1.00991666755566        0.82806935227851
H            4.65848086831780        3.22284107526899       -1.27258387463362
H            6.08402962938543        2.81846983684354       -0.32240025335403
H            4.65794349262872        3.47377987609164        0.47472146028069

          :  Hamiltonian                  GFN2-xTB          :
         :: total energy             -17.168510778227 Eh    ::
         :: gradient norm              0.000382279457 Eh/a0 ::
         :: HOMO-LUMO gap              7.726698862035 eV    ::
         :: SCC energy               -17.419152321819 Eh    ::
         :: -> dispersion             -0.007088582477 Eh    ::
         :: repulsion energy           0.250638405686 Eh    ::

    * Orbital Energies and Occupations

         #    Occupation            Energy/Eh            Energy/eV
      -------------------------------------------------------------
         1        2.0000           -0.8990538             -24.4645
       ...           ...                  ...                  ...
         4        2.0000           -0.8049633             -21.9042
         5        2.0000           -0.7784935             -21.1839
         6        2.0000           -0.7369044             -20.0522
         7        2.0000           -0.7249254             -19.7262
         8        2.0000           -0.6908521             -18.7990
         9        2.0000           -0.6845537             -18.6277
        10        2.0000           -0.6571567             -17.8821
        11        2.0000           -0.6382877             -17.3687
        12        2.0000           -0.6197662             -16.8647
        13        2.0000           -0.5963898             -16.2286
        14        2.0000           -0.5802782             -15.7902
        15        2.0000           -0.5604244             -15.2499
        16        2.0000           -0.5527597             -15.0414 (HOMO)
        17                         -0.2688087              -7.3147 (LUMO)
        18                         -0.1650587              -4.4915
        19                         -0.1059838              -2.8840
        20                         -0.1051443              -2.8611
        21                         -0.0611311              -1.6635
        22                         -0.0282915              -0.7699
        23                         -0.0170438              -0.4638
        24                         -0.0011767              -0.0320
        25                          0.0189810               0.5165
        26                          0.0380870               1.0364
        27                          0.0491199               1.3366
       ...                                ...                  ...
        32                          0.1746723               4.7531
      -------------------------------------------------------------
                  HL-Gap            0.2839510 Eh            7.7267 eV

     #   Z          covCN         q      C6AA      α(0)
     1   7 N        3.483    -0.128    23.761     7.240
     2   6 C        3.731    -0.034    21.278     6.584
     3   6 C        3.803    -0.082    22.061     6.687
     4   6 C        3.802    -0.061    21.666     6.627
     5   6 C        3.753    -0.116    22.781     6.806
     6   1 H        0.859     0.270     0.810     1.410
     7   1 H        0.859     0.273     0.801     1.402
     8   1 H        0.859     0.273     0.801     1.402
     9   1 H        0.924     0.107     1.725     2.054
    10   1 H        0.924     0.107     1.725     2.054
    11   1 H        0.924     0.063     2.161     2.299
    12   1 H        0.924     0.063     2.161     2.299
    13   1 H        0.924     0.051     2.308     2.376
    14   1 H        0.924     0.051     2.308     2.376
    15   1 H        0.925     0.050     2.320     2.382
    16   1 H        0.925     0.063     2.162     2.300
    17   1 H        0.925     0.050     2.320     2.382

Wiberg/Mayer (AO) data.
largest (>0.10) Wiberg bond orders for each atom

     #   Z sym  total        # sym  WBO       # sym  WBO       # sym  WBO
 ---------------------------------------------------------------------------
     1   7 N    3.675 --     2 C    0.919     6 H    0.913     8 H    0.910
                             7 H    0.910
     2   6 C    3.884 --     3 C    1.008     9 H    0.967    10 H    0.967
                             1 N    0.919
     3   6 C    3.979 --     2 C    1.008     4 C    0.994    12 H    0.972
                            11 H    0.972
     4   6 C    3.989 --     5 C    1.018     3 C    0.994    13 H    0.977
                            14 H    0.977
     5   6 C    3.990 --     4 C    1.018    17 H    0.986    15 H    0.986
                            16 H    0.983
     6   1 H    0.927 --     1 N    0.913
     7   1 H    0.926 --     1 N    0.910
     8   1 H    0.926 --     1 N    0.910
     9   1 H    0.989 --     2 C    0.967
    10   1 H    0.989 --     2 C    0.967
    11   1 H    0.996 --     3 C    0.972
    12   1 H    0.996 --     3 C    0.972
    13   1 H    0.997 --     4 C    0.977
    14   1 H    0.997 --     4 C    0.977
    15   1 H    0.997 --     5 C    0.986
    16   1 H    0.995 --     5 C    0.983
    17   1 H    0.997 --     5 C    0.986
 ---------------------------------------------------------------------------

molecular dipole:
                 x           y           z       tot (Debye)
 q only:        2.715       0.313       0.109
   full:        2.397       0.203       0.125       6.124

           -------------------------------------------------
          | TOTAL ENERGY              -17.168510778227 Eh   |
          | GRADIENT NORM               0.000382279457 Eh/α |
          | HOMO-LUMO GAP               7.726698862035 eV   |
           -------------------------------------------------

 * finished run on 2023/01/23 at 19:56:10.956
