   * xtb version 6.5.1 (fef0646) compiled by 'conda@b96dff2e9fd6' on 2023-01-04
          program call               : xtb init.xyz --opt -c 0 -u 0 -P 16 --alpb water

   ID    Z sym.   atoms
    1    7 N      1
    2    6 C      2-17
    3   17 Cl     18
    4    1 H      19-36

      * Solvation model:               ALPB
        Solvent                        water
        Solvent mass                       1.8000E+01 g/mol
          :  Hamiltonian                  GFN2-xTB          :
 * total energy  :   -50.9004581 Eh     change       -0.2540880E-08 Eh
 * total energy  :   -50.9058586 Eh     change       -0.5400437E-02 Eh
 * total energy  :   -50.9075108 Eh     change       -0.1652219E-02 Eh
 * total energy  :   -50.9084398 Eh     change       -0.9289636E-03 Eh
 * total energy  :   -50.9096233 Eh     change       -0.1183487E-02 Eh
 * total energy  :   -50.9108587 Eh     change       -0.1235460E-02 Eh
 * total energy  :   -50.9119288 Eh     change       -0.1070121E-02 Eh
 * total energy  :   -50.9123481 Eh     change       -0.4192177E-03 Eh
 * total energy  :   -50.9127849 Eh     change       -0.4367955E-03 Eh
 * total energy  :   -50.9130033 Eh     change       -0.2184246E-03 Eh
 * total energy  :   -50.9156326 Eh     change       -0.4421677E-04 Eh
 * total energy  :   -50.9156715 Eh     change       -0.3884184E-04 Eh
 * total energy  :   -50.9157052 Eh     change       -0.3371534E-04 Eh
 * total energy  :   -50.9157286 Eh     change       -0.2338549E-04 Eh
 * total energy  :   -50.9157735 Eh     change       -0.4493297E-04 Eh
 * total energy  :   -50.9157890 Eh     change       -0.1551234E-04 Eh
 * total energy  :   -50.9158013 Eh     change       -0.1224296E-04 Eh
 * total energy  :   -50.9158076 Eh     change       -0.6353149E-05 Eh
 * total energy  :   -50.9158122 Eh     change       -0.4554638E-05 Eh
   *** GEOMETRY OPTIMIZATION CONVERGED AFTER 35 ITERATIONS ***

 final structure:
================
36
 xtb: 6.5.1 (fef0646)
N            0.84756253737107        0.71689080834797        0.40374384718297
C            2.31685641167250        0.85538156790491        0.44229532560679
C            2.85992961094930        1.00660748848296       -0.97886167128638
C            4.36122107878741        0.95942127170950       -0.97382109121782
C            5.02701889561587       -0.26114991418157       -0.99921215717300
C            6.40484334574766       -0.32137361767417       -0.96878291028617
C            7.17223179469719        0.84557370457575       -0.90670606490625
C            8.62248763112726        0.85012398916157       -0.87475351523424
C            9.42772448469612       -0.20670155069253       -1.05417563398007
C           10.87919148803938       -0.19257091110404       -1.03171086486566
C           11.62969342477498        0.90670406085825       -0.60552144913180
C           13.01004215849369        0.86618984808363       -0.61068594769038
C           13.67797153420857       -0.26979548172566       -1.04017483945710
C           12.95008366717732       -1.37160388515450       -1.45940273387564
C           11.56957690647921       -1.33404631058261       -1.45117135969602
C            6.49486078301391        2.06804873087758       -0.87109635898021
C            5.11636549193023        2.12365960974451       -0.90529314027175
Cl           0.19135947910511       -1.70879141615952       -1.34353642642893
H            0.45884299612071        0.56862987636195        1.33737416221795
H            0.59262356837976       -0.11616273994866       -0.18756690097212
H            0.41429617139389        1.53774377468810       -0.02625348345395
H            2.74056862088837       -0.04342073123820        0.89006036369298
H            2.59300557281773        1.72080491529551        1.04598769825889
H            2.52495759967409        1.94976004765131       -1.41047725897628
H            2.46644974289549        0.18567612027497       -1.58124234436867
H            4.45211610828439       -1.17518141336486       -1.05326823001689
H            6.88921831265111       -1.28571932597730       -0.98738404544598
H            9.06045276739173        1.82543175173053       -0.70769718211661
H            8.99516932422059       -1.17646737256843       -1.26271619066212
H           11.13043701746802        1.79716779476939       -0.25668983165791
H           13.57195068428945        1.72570384184851       -0.27570218700729
H           14.75720281967563       -0.29718219489467       -1.04438790284619
H           13.46181607093925       -2.26282081184245       -1.79206938165184
H           11.00912936844852       -2.19789477485775       -1.78027045656483
H            7.06602842862778        2.98430156221762       -0.82267708314472
H            4.62202410193359        3.08354168738301       -0.88489275358414

          :  Hamiltonian                  GFN2-xTB          :
         :: total energy             -50.915812181635 Eh    ::
         :: gradient norm              0.000468947182 Eh/a0 ::
         :: HOMO-LUMO gap              2.769310364066 eV    ::
         :: SCC energy               -51.765770116902 Eh    ::
         :: -> dispersion             -0.033111153899 Eh    ::
         :: -> Gsolv                  -0.075643628528 Eh    ::
         :: repulsion energy           0.850339499068 Eh    ::

    * Orbital Energies and Occupations

         #    Occupation            Energy/Eh            Energy/eV
      -------------------------------------------------------------
         1        2.0000           -1.0065178             -27.3887
       ...           ...                  ...                  ...
        35        2.0000           -0.4345924             -11.8259
        36        2.0000           -0.4336074             -11.7991
        37        2.0000           -0.4273798             -11.6296
        38        2.0000           -0.4171677             -11.3517
        39        2.0000           -0.4161552             -11.3242
        40        2.0000           -0.4089769             -11.1288
        41        2.0000           -0.4048525             -11.0166
        42        2.0000           -0.4023663             -10.9489
        43        2.0000           -0.4014376             -10.9237
        44        2.0000           -0.4003668             -10.8945
        45        2.0000           -0.3998688             -10.8810
        46        2.0000           -0.3988421             -10.8530
        47        2.0000           -0.3650727              -9.9341 (HOMO)
        48                         -0.2633024              -7.1648 (LUMO)
        49                         -0.2188454              -5.9551
        50                         -0.2160940              -5.8802
        51                         -0.2064076              -5.6166
        52                         -0.1577752              -4.2933
        53                         -0.0838961              -2.2829
        54                         -0.0654709              -1.7816
        55                         -0.0246956              -0.6720
        56                          0.0785056               2.1362
        57                          0.0970240               2.6402
        58                          0.1008115               2.7432
       ...                                ...                  ...
        95                          0.7066324              19.2284
      -------------------------------------------------------------
                  HL-Gap            0.1017703 Eh            2.7693 eV

     #   Z          covCN         q      C6AA      α(0)
     1   7 N        3.484    -0.170    24.664     7.376
     2   6 C        3.734    -0.021    21.029     6.545
     3   6 C        3.809    -0.086    22.125     6.696
     4   6 C        2.971     0.014    27.703     8.633
     5   6 C        2.922    -0.042    29.039     8.837
     6   6 C        2.922    -0.038    28.949     8.823
     7   6 C        2.970     0.008    27.842     8.655
     8   6 C        2.901    -0.043    29.055     8.838
     9   6 C        2.901    -0.044    29.094     8.844
    10   6 C        2.970     0.012    27.753     8.641
    11   6 C        2.924    -0.039    28.963     8.826
    12   6 C        2.918    -0.036    28.884     8.813
    13   6 C        2.920    -0.037    28.920     8.819
    14   6 C        2.917    -0.036    28.886     8.813
    15   6 C        2.929    -0.039    28.979     8.828
    16   6 C        2.928    -0.041    29.013     8.833
    17   6 C        2.921    -0.046    29.147     8.853
    18  17 Cl       0.047    -0.947   124.878    17.007
    19   1 H        0.859     0.305     0.699     1.310
    20   1 H        0.904     0.295     0.724     1.331
    21   1 H        0.859     0.299     0.716     1.326
    22   1 H        0.925     0.095     1.832     2.117
    23   1 H        0.924     0.106     1.736     2.060
    24   1 H        0.925     0.070     2.087     2.259
    25   1 H        0.924     0.068     2.106     2.270
    26   1 H        0.926     0.033     2.544     2.494
    27   1 H        0.926     0.029     2.596     2.519
    28   1 H        0.925     0.039     2.460     2.453
    29   1 H        0.925     0.034     2.527     2.486
    30   1 H        0.926     0.038     2.475     2.460
    31   1 H        0.926     0.035     2.512     2.479
    32   1 H        0.926     0.033     2.538     2.492
    33   1 H        0.926     0.032     2.555     2.499
    34   1 H        0.926     0.031     2.568     2.506
    35   1 H        0.926     0.037     2.489     2.467
    36   1 H        0.926     0.049     2.327     2.386

Wiberg/Mayer (AO) data.
largest (>0.10) Wiberg bond orders for each atom

     #   Z sym  total        # sym  WBO       # sym  WBO       # sym  WBO
 ---------------------------------------------------------------------------
     1   7 N    3.643 --     2 C    0.970    21 H    0.896    19 H    0.893
                            20 H    0.832
     2   6 C    3.931 --     3 C    0.993     1 N    0.970    22 H    0.969
                            23 H    0.968
     3   6 C    3.990 --     4 C    1.010     2 C    0.993    24 H    0.970
                            25 H    0.965
     4   6 C    3.977 --    17 C    1.404     5 C    1.395     3 C    1.010
     5   6 C    3.992 --     6 C    1.472     4 C    1.395    26 H    0.969
                            16 C    0.101
     6   6 C    3.983 --     5 C    1.472     7 C    1.359    27 H    0.966
                            17 C    0.101
     7   6 C    3.989 --    16 C    1.364     6 C    1.359     8 C    1.115
     8   6 C    3.990 --     9 C    1.758     7 C    1.115    28 H    0.958
     9   6 C    3.988 --     8 C    1.758    10 C    1.112    29 H    0.959
    10   6 C    3.989 --    15 C    1.365    11 C    1.364     9 C    1.112
    11   6 C    3.983 --    12 C    1.464    10 C    1.364    30 H    0.965
                            14 C    0.105
    12   6 C    3.992 --    11 C    1.464    13 C    1.426    31 H    0.971
                            15 C    0.104
    13   6 C    3.980 --    14 C    1.430    12 C    1.426    32 H    0.971
    14   6 C    3.992 --    15 C    1.461    13 C    1.430    33 H    0.971
                            11 C    0.105
    15   6 C    3.982 --    14 C    1.461    10 C    1.365    34 H    0.969
                            12 C    0.104
    16   6 C    3.982 --    17 C    1.463     7 C    1.364    35 H    0.968
                             5 C    0.101
    17   6 C    3.990 --    16 C    1.463     4 C    1.404    36 H    0.967
                             6 C    0.101
    18  17 Cl   0.103
    19   1 H    0.907 --     1 N    0.893
    20   1 H    0.913 --     1 N    0.832
    21   1 H    0.911 --     1 N    0.896
    22   1 H    0.991 --     2 C    0.969
    23   1 H    0.989 --     2 C    0.968
    24   1 H    0.995 --     3 C    0.970
    25   1 H    0.994 --     3 C    0.965
    26   1 H    0.998 --     5 C    0.969
    27   1 H    0.999 --     6 C    0.966
    28   1 H    0.998 --     8 C    0.958
    29   1 H    0.998 --     9 C    0.959
    30   1 H    0.999 --    11 C    0.965
    31   1 H    0.998 --    12 C    0.971
    32   1 H    0.998 --    13 C    0.971
    33   1 H    0.999 --    14 C    0.971
    34   1 H    0.999 --    15 C    0.969
    35   1 H    0.998 --    16 C    0.968
    36   1 H    0.997 --    17 C    0.967
 ---------------------------------------------------------------------------

molecular dipole:
                 x           y           z       tot (Debye)
 q only:        1.026       4.517       3.090
   full:        0.776       3.840       2.674      12.056

           -------------------------------------------------
          | TOTAL ENERGY              -50.915812181635 Eh   |
          | GRADIENT NORM               0.000468947182 Eh/α |
          | HOMO-LUMO GAP               2.769310364066 eV   |
           -------------------------------------------------

 * finished run on 2023/01/24 at 15:31:49.260
