   * xtb version 6.5.1 (fef0646) compiled by 'conda@b96dff2e9fd6' on 2023-01-04
          program call               : xtb init.xyz --opt -c 1 -u 0 -P 16 --alpb water

   ID    Z sym.   atoms
    1    7 N      1
    2    6 C      2-5
    3    1 H      6-15

      * Solvation model:               ALPB
        Solvent                        water
        Solvent mass                       1.8000E+01 g/mol
          :  Hamiltonian                  GFN2-xTB          :
 * total energy  :   -16.2180673 Eh     change       -0.1856506E-09 Eh
 * total energy  :   -16.2196800 Eh     change       -0.1612674E-02 Eh
 * total energy  :   -16.2198506 Eh     change       -0.1706301E-03 Eh
 * total energy  :   -16.2198821 Eh     change       -0.3144996E-04 Eh
 * total energy  :   -16.2198977 Eh     change       -0.1563242E-04 Eh
 * total energy  :   -16.2198998 Eh     change       -0.2081548E-05 Eh
   *** GEOMETRY OPTIMIZATION CONVERGED AFTER 6 ITERATIONS ***

 final structure:
================
15
 xtb: 6.5.1 (fef0646)
N            1.01332572231580        0.08144164446474       -0.01284183805274
C            2.49626321310531        0.09015735598529       -0.04032432338788
C            3.00636325958108        0.80129453248366       -1.29345809447350
C            4.50562085241706        0.79965984747747       -1.32045644492978
C            5.22808391128845        0.26302020927065       -2.28543489993033
H            0.66727106702725       -0.39735218316703        0.82669943153596
H            0.64827991353530       -0.40232031168574       -0.84205936169922
H            0.65265408394671        1.04307935036143       -0.01664593962528
H            2.86306258466156       -0.93609465191406       -0.03169524529539
H            2.86998429349045        0.59883326815697        0.84829931057488
H            2.66617923495605        1.83920538503778       -1.29600637270614
H            2.63621568490542        0.30830248023510       -2.19250783862500
H            4.99198581852215        1.27842820737398       -0.48134099028128
H            4.77795988426214       -0.21699619119661       -3.13940569038731
H            6.30445047598529        0.28757105711639       -2.27548170271699

          :  Hamiltonian                  GFN2-xTB          :
         :: total energy             -16.219899808011 Eh    ::
         :: gradient norm              0.000307416478 Eh/a0 ::
         :: HOMO-LUMO gap              5.449912318877 eV    ::
         :: SCC energy               -16.482994811294 Eh    ::
         :: -> dispersion             -0.006394469483 Eh    ::
         :: -> Gsolv                  -0.119190816127 Eh    ::
         :: repulsion energy           0.263093381637 Eh    ::

    * Orbital Energies and Occupations

         #    Occupation            Energy/Eh            Energy/eV
      -------------------------------------------------------------
         1        2.0000           -0.6937053             -18.8767
       ...           ...                  ...                  ...
         3        2.0000           -0.6245237             -16.9942
         4        2.0000           -0.6037300             -16.4283
         5        2.0000           -0.5909231             -16.0798
         6        2.0000           -0.5813993             -15.8207
         7        2.0000           -0.5505766             -14.9820
         8        2.0000           -0.5415195             -14.7355
         9        2.0000           -0.5152314             -14.0202
        10        2.0000           -0.4970115             -13.5244
        11        2.0000           -0.4792761             -13.0418
        12        2.0000           -0.4692921             -12.7701
        13        2.0000           -0.4444561             -12.0943
        14        2.0000           -0.4316186             -11.7449
        15        2.0000           -0.4046515             -11.0111 (HOMO)
        16                         -0.2043709              -5.5612 (LUMO)
        17                         -0.0498397              -1.3562
        18                          0.0558062               1.5186
        19                          0.0887613               2.4153
        20                          0.1035090               2.8166
        21                          0.1249792               3.4009
        22                          0.1329800               3.6186
        23                          0.1509558               4.1077
        24                          0.1955724               5.3218
        25                          0.2068643               5.6291
        26                          0.2072179               5.6387
       ...                                ...                  ...
        30                          0.6217352              16.9183
      -------------------------------------------------------------
                  HL-Gap            0.2002806 Eh            5.4499 eV

     #   Z          covCN         q      C6AA      α(0)
     1   7 N        3.484    -0.161    24.473     7.347
     2   6 C        3.734    -0.035    21.287     6.585
     3   6 C        3.807    -0.088    22.165     6.702
     4   6 C        2.888    -0.037    28.925     8.817
     5   6 C        2.837    -0.103    30.588     9.063
     6   1 H        0.859     0.316     0.666     1.279
     7   1 H        0.859     0.309     0.686     1.298
     8   1 H        0.859     0.310     0.685     1.297
     9   1 H        0.925     0.107     1.719     2.050
    10   1 H        0.925     0.109     1.703     2.041
    11   1 H        0.924     0.080     1.982     2.202
    12   1 H        0.925     0.074     2.039     2.233
    13   1 H        0.925     0.043     2.412     2.429
    14   1 H        0.926     0.046     2.373     2.409
    15   1 H        0.926     0.029     2.595     2.519

Wiberg/Mayer (AO) data.
largest (>0.10) Wiberg bond orders for each atom

     #   Z sym  total        # sym  WBO       # sym  WBO       # sym  WBO
 ---------------------------------------------------------------------------
     1   7 N    3.653 --     2 C    0.967     7 H    0.890     8 H    0.889
                             6 H    0.886
     2   6 C    3.928 --     3 C    0.999     1 N    0.967     9 H    0.967
                            10 H    0.966
     3   6 C    3.990 --     4 C    1.020     2 C    0.999    12 H    0.970
                            11 H    0.957
     4   6 C    3.990 --     5 C    1.984     3 C    1.020    13 H    0.966
     5   6 C    3.991 --     4 C    1.984    15 H    0.977    14 H    0.974
     6   1 H    0.899 --     1 N    0.886
     7   1 H    0.904 --     1 N    0.890
     8   1 H    0.904 --     1 N    0.889
     9   1 H    0.988 --     2 C    0.967
    10   1 H    0.988 --     2 C    0.966
    11   1 H    0.994 --     3 C    0.957
    12   1 H    0.994 --     3 C    0.970
    13   1 H    0.998 --     4 C    0.966
    14   1 H    0.998 --     5 C    0.974
    15   1 H    0.999 --     5 C    0.977
 ---------------------------------------------------------------------------

molecular dipole:
                 x           y           z       tot (Debye)
 q only:        1.966       0.221      -0.020
   full:        1.929       0.226      -0.043       4.939

           -------------------------------------------------
          | TOTAL ENERGY              -16.219899808011 Eh   |
          | GRADIENT NORM               0.000307416478 Eh/α |
          | HOMO-LUMO GAP               5.449912318877 eV   |
           -------------------------------------------------

 * finished run on 2023/01/24 at 14:57:46.813
