   * xtb version 6.5.1 (fef0646) compiled by 'conda@b96dff2e9fd6' on 2023-01-04
          program call               : xtb init.xyz --opt -c 0 -u 0 -P 16 --input xtb.inp

   ID    Z sym.   atoms
    1    7 N      1, 10, 11
    2    6 C      2-9, 12-17
    3   17 Cl     18
    4    1 H      19-34

          :  Hamiltonian                  GFN2-xTB          :
 * total energy  :   -51.3450796 Eh     change       -0.6726779E-09 Eh
 * total energy  :   -51.3599982 Eh     change       -0.1491860E-01 Eh
 * total energy  :   -51.3672745 Eh     change       -0.7276314E-02 Eh
 * total energy  :   -51.3719601 Eh     change       -0.4685575E-02 Eh
 * total energy  :   -51.3747883 Eh     change       -0.2828224E-02 Eh
 * total energy  :   -51.3766152 Eh     change       -0.1826898E-02 Eh
 * total energy  :   -51.3783797 Eh     change       -0.1764465E-02 Eh
 * total energy  :   -51.3793508 Eh     change       -0.9711277E-03 Eh
 * total energy  :   -51.3797293 Eh     change       -0.3785308E-03 Eh
 * total energy  :   -51.3798645 Eh     change       -0.1351876E-03 Eh
 * total energy  :   -51.3822838 Eh     change       -0.2681917E-04 Eh
 * total energy  :   -51.3823085 Eh     change       -0.2473017E-04 Eh
 * total energy  :   -51.3823336 Eh     change       -0.2508799E-04 Eh
 * total energy  :   -51.3823697 Eh     change       -0.3612695E-04 Eh
 * total energy  :   -51.3823902 Eh     change       -0.2045351E-04 Eh
 * total energy  :   -51.3823978 Eh     change       -0.7565107E-05 Eh
 * total energy  :   -51.3823967 Eh     change        0.1055108E-05 Eh
 * total energy  :   -51.3824010 Eh     change       -0.4286488E-05 Eh
 * total energy  :   -51.3824040 Eh     change       -0.2998277E-05 Eh
   *** GEOMETRY OPTIMIZATION CONVERGED AFTER 33 ITERATIONS ***

 final structure:
================
34
 xtb: 6.5.1 (fef0646)
N            2.67128126954001       -1.92606132157702        1.83523630002426
C            2.34226224991186       -2.46706523617808        0.51824200061460
C            2.93124948661643       -1.56626751963431       -0.57460113627943
C            4.43010755251537       -1.54394076721386       -0.49098157035234
C            5.18508493595837       -2.56574319964932       -1.06280815658769
C            6.55681019894845       -2.58290662059180       -0.94330137401921
C            5.08364839863605       -0.52620948243136        0.19995753005031
C            6.45793573410168       -0.52233223961518        0.31218955007013
C            7.21259514211931       -1.55953350421794       -0.24599841460579
N            8.58205727666446       -1.46685190673329       -0.12299668111160
N            9.24965031416976       -2.52586170084789       -0.33975437257102
C           10.62462989751884       -2.41891302792492       -0.24141067968509
C           11.29796740346398       -1.28058906592955        0.22051335718555
C           12.67328548479299       -1.28530842942373        0.31066590293916
C           13.39456382556844       -2.41269683418020       -0.05832529129834
C           12.73482857867248       -3.54279788377407       -0.51770165829205
C           11.35755952584940       -3.55246069077973       -0.60594130525591
Cl           1.76775834831553        0.84999712750973        2.03604315811662
H            2.25878536087023       -2.47925294595248        2.57789303408460
H            2.17970189088897       -0.46612714420770        1.93915466365818
H            3.67901930271327       -1.89496055428683        1.96224861057865
H            1.25396713712420       -2.48421643614931        0.42785900436582
H            2.71907424285115       -3.49185042756628        0.39011156158817
H            2.53456824858181       -0.56015592354358       -0.44388694417507
H            2.61431081840044       -1.94908305562705       -1.54564588354673
H            4.68446689307735       -3.35227238744179       -1.61084356295705
H            7.15170263093000       -3.36471390567733       -1.39078944816327
H            4.50260924200007        0.27062396484708        0.64038208317790
H            6.97051488377104        0.26394018547988        0.84441674843332
H           10.71590610066783       -0.41741687411619        0.50602469739801
H           13.19296580833229       -0.40884623896185        0.67039264446703
H           14.47218514814496       -2.41026491336978        0.01554947156656
H           13.29991582599347       -4.41809684866816       -0.80309301768892
H           10.82461084228831       -4.42147419156453       -0.96041082173008

          :  Hamiltonian                  GFN2-xTB          :
         :: total energy             -51.382403997934 Eh    ::
         :: gradient norm              0.000696547946 Eh/a0 ::
         :: HOMO-LUMO gap              0.719717294978 eV    ::
         :: SCC energy               -52.154804428951 Eh    ::
         :: -> dispersion             -0.033003280697 Eh    ::
         :: repulsion energy           0.772635510110 Eh    ::

    * Orbital Energies and Occupations

         #    Occupation            Energy/Eh            Energy/eV
      -------------------------------------------------------------
         1        2.0000           -1.0186939             -27.7201
       ...           ...                  ...                  ...
        35        2.0000           -0.4585952             -12.4790
        36        2.0000           -0.4394708             -11.9586
        37        2.0000           -0.4389410             -11.9442
        38        2.0000           -0.4272195             -11.6252
        39        2.0000           -0.4253916             -11.5755
        40        2.0000           -0.4214826             -11.4691
        41        2.0000           -0.4142795             -11.2731
        42        2.0000           -0.4126326             -11.2283
        43        2.0000           -0.4016930             -10.9306
        44        2.0000           -0.3956905             -10.7673
        45        2.0000           -0.3955340             -10.7630
        46        2.0000           -0.3894501             -10.5975
        47        2.0000           -0.3338944              -9.0857 (HOMO)
        48        0.0000           -0.3074453              -8.3660 (LUMO)
        49                         -0.2306222              -6.2755
        50                         -0.2294452              -6.2435
        51                         -0.2215286              -6.0281
        52                         -0.1949118              -5.3038
        53                         -0.0977552              -2.6601
        54                         -0.0870183              -2.3679
        55                         -0.0575375              -1.5657
        56                          0.0180807               0.4920
        57                          0.0657948               1.7904
        58                          0.0664593               1.8085
       ...                                ...                  ...
        93                          0.6599074              17.9570
      -------------------------------------------------------------
                  HL-Gap            0.0264491 Eh            0.7197 eV

     #   Z          covCN         q      C6AA      α(0)
     1   7 N        2.711    -0.301    27.750     7.824
     2   6 C        3.733     0.011    20.478     6.459
     3   6 C        3.809    -0.082    22.048     6.684
     4   6 C        2.971     0.015    27.675     8.629
     5   6 C        2.921    -0.040    28.984     8.829
     6   6 C        2.917    -0.036    28.896     8.815
     7   6 C        2.921    -0.044    29.102     8.847
     8   6 C        2.925    -0.036    28.885     8.814
     9   6 C        2.942     0.074    26.356     8.420
    10   7 N        1.945    -0.138    24.756     7.378
    11   7 N        1.945    -0.143    24.864     7.394
    12   6 C        2.942     0.077    26.279     8.408
    13   6 C        2.918    -0.033    28.813     8.802
    14   6 C        2.917    -0.028    28.698     8.785
    15   6 C        2.920    -0.025    28.617     8.772
    16   6 C        2.917    -0.029    28.718     8.788
    17   6 C        2.928    -0.033    28.812     8.803
    18  17 Cl       0.836    -0.495   115.502    16.441
    19   1 H        0.860     0.166     1.294     1.782
    20   1 H        0.916     0.333     0.620     1.231
    21   1 H        0.860     0.173     1.255     1.755
    22   1 H        0.924     0.054     2.270     2.356
    23   1 H        0.923     0.029     2.608     2.525
    24   1 H        0.925     0.073     2.052     2.240
    25   1 H        0.924     0.053     2.285     2.364
    26   1 H        0.925     0.033     2.548     2.496
    27   1 H        0.926     0.051     2.305     2.374
    28   1 H        0.926     0.056     2.252     2.347
    29   1 H        0.926     0.051     2.305     2.374
    30   1 H        0.926     0.054     2.265     2.353
    31   1 H        0.926     0.036     2.502     2.474
    32   1 H        0.926     0.037     2.493     2.469
    33   1 H        0.926     0.036     2.497     2.471
    34   1 H        0.926     0.050     2.326     2.385

Wiberg/Mayer (AO) data.
largest (>0.10) Wiberg bond orders for each atom

     #   Z sym  total        # sym  WBO       # sym  WBO       # sym  WBO
 ---------------------------------------------------------------------------
     1   7 N    3.253 --     2 C    1.007    19 H    0.958    21 H    0.951
                            20 H    0.219
     2   6 C    3.972 --     1 N    1.007     3 C    0.987    22 H    0.974
                            23 H    0.972
     3   6 C    3.991 --     4 C    1.015     2 C    0.987    24 H    0.968
                            25 H    0.968
     4   6 C    3.970 --     7 C    1.392     5 C    1.389     3 C    1.015
     5   6 C    3.991 --     6 C    1.481     4 C    1.389    26 H    0.968
     6   6 C    3.983 --     5 C    1.481     9 C    1.323    27 H    0.966
     7   6 C    3.989 --     8 C    1.473     4 C    1.392    28 H    0.965
     8   6 C    3.976 --     7 C    1.473     9 C    1.334    29 H    0.968
     9   6 C    3.979 --     8 C    1.334     6 C    1.323    10 N    1.160
    10   7 N    3.058 --    11 N    1.660     9 C    1.160
    11   7 N    3.037 --    10 N    1.660    12 C    1.150
    12   6 C    3.980 --    17 C    1.341    13 C    1.331    11 N    1.150
    13   6 C    3.983 --    14 C    1.475    12 C    1.331    30 H    0.966
                            16 C    0.102
    14   6 C    3.992 --    13 C    1.475    15 C    1.417    31 H    0.970
    15   6 C    3.972 --    16 C    1.427    14 C    1.417    32 H    0.971
    16   6 C    3.992 --    17 C    1.465    15 C    1.427    33 H    0.970
                            13 C    0.102
    17   6 C    3.975 --    16 C    1.465    12 C    1.341    34 H    0.968
    18  17 Cl   0.759 --    20 H    0.665
    19   1 H    0.972 --     1 N    0.958
    20   1 H    0.889 --    18 Cl   0.665     1 N    0.219
    21   1 H    0.970 --     1 N    0.951
    22   1 H    0.996 --     2 C    0.974
    23   1 H    0.999 --     2 C    0.972
    24   1 H    0.994 --     3 C    0.968
    25   1 H    0.996 --     3 C    0.968
    26   1 H    0.999 --     5 C    0.968
    27   1 H    0.997 --     6 C    0.966
    28   1 H    0.996 --     7 C    0.965
    29   1 H    0.997 --     8 C    0.968
    30   1 H    0.997 --    13 C    0.966
    31   1 H    0.999 --    14 C    0.970
    32   1 H    0.999 --    15 C    0.971
    33   1 H    0.998 --    16 C    0.970
    34   1 H    0.998 --    17 C    0.968
 ---------------------------------------------------------------------------

molecular dipole:
                 x           y           z       tot (Debye)
 q only:        0.517      -1.781      -0.277
   full:        0.504      -1.684      -0.129       4.479

           -------------------------------------------------
          | TOTAL ENERGY              -51.382403997934 Eh   |
          | GRADIENT NORM               0.000696547946 Eh/α |
          | HOMO-LUMO GAP               0.719717294978 eV   |
           -------------------------------------------------

 * finished run on 2023/01/23 at 19:01:40.953
