   * xtb version 6.5.1 (fef0646) compiled by 'conda@b96dff2e9fd6' on 2023-01-04
          program call               : xtb init.xyz --opt -c 0 -u 0 -P 16 --alpb water

   ID    Z sym.   atoms
    1    8 O      1
    2    6 C      2-4
    3    7 N      5
    4   17 Cl     6
    5    1 H      7-16

      * Solvation model:               ALPB
        Solvent                        water
        Solvent mass                       1.8000E+01 g/mol
          :  Hamiltonian                  GFN2-xTB          :
 * total energy  :   -23.0877635 Eh     change       -0.6812684E-10 Eh
 * total energy  :   -23.0910502 Eh     change       -0.3286658E-02 Eh
 * total energy  :   -23.0921565 Eh     change       -0.1106327E-02 Eh
 * total energy  :   -23.0925864 Eh     change       -0.4298842E-03 Eh
 * total energy  :   -23.0929364 Eh     change       -0.3500018E-03 Eh
 * total energy  :   -23.0933095 Eh     change       -0.3731124E-03 Eh
 * total energy  :   -23.0936291 Eh     change       -0.3196337E-03 Eh
 * total energy  :   -23.0938290 Eh     change       -0.1999308E-03 Eh
 * total energy  :   -23.0939560 Eh     change       -0.1269814E-03 Eh
 * total energy  :   -23.0940886 Eh     change       -0.1326051E-03 Eh
 * total energy  :   -23.0942108 Eh     change       -0.1221468E-03 Eh
 * total energy  :   -23.0943489 Eh     change       -0.1381137E-03 Eh
 * total energy  :   -23.0944020 Eh     change       -0.5306135E-04 Eh
 * total energy  :   -23.0944224 Eh     change       -0.2045019E-04 Eh
 * total energy  :   -23.0944222 Eh     change        0.2394783E-06 Eh
 * total energy  :   -23.0944274 Eh     change       -0.5248785E-05 Eh
 * total energy  :   -23.0944294 Eh     change       -0.2030064E-05 Eh
 * total energy  :   -23.0944305 Eh     change       -0.1013452E-05 Eh
   *** GEOMETRY OPTIMIZATION CONVERGED AFTER 18 ITERATIONS ***

 final structure:
================
16
 xtb: 6.5.1 (fef0646)
O            3.60609082854545        1.75759801071618        0.09266101570053
C            2.63417548239746        0.76285701477849       -0.15603407758360
C            3.00791249561242       -0.16577933542810       -1.31946541886090
C            4.44969212497931       -0.65236888176210       -1.22578141688592
N            4.67046411861159       -1.37111476946093        0.04502835774171
Cl           2.40697909307589       -3.38198680921934        0.55199340543790
H            3.59578697153843        2.40009860748855       -0.62924930748097
H            1.65397752266176        1.21426946838266       -0.34925363838096
H            2.54640107372175        0.18707613138148        0.76830112167448
H            2.87205091502386        0.35057321025314       -2.26935345104656
H            2.33331765815443       -1.02131821051588       -1.29123476197960
H            5.13220491316787        0.19725463019658       -1.26978244307507
H            4.64987405833706       -1.32742345629072       -2.05610386665226
H            4.61048132067092       -0.71304961442352        0.82625086426510
H            5.57868464034990       -1.83859647415731        0.06056433351989
H            3.92123678315235       -2.09338952193922        0.18942928360606

          :  Hamiltonian                  GFN2-xTB          :
         :: total energy             -23.094430459668 Eh    ::
         :: gradient norm              0.000585370135 Eh/a0 ::
         :: HOMO-LUMO gap             10.281125529412 eV    ::
         :: SCC energy               -23.301400993609 Eh    ::
         :: -> dispersion             -0.008702878154 Eh    ::
         :: -> Gsolv                  -0.076487543704 Eh    ::
         :: repulsion energy           0.206938686517 Eh    ::

    * Orbital Energies and Occupations

         #    Occupation            Energy/Eh            Energy/eV
      -------------------------------------------------------------
         1        2.0000           -1.0059133             -27.3723
       ...           ...                  ...                  ...
         8        2.0000           -0.5655718             -15.3900
         9        2.0000           -0.5543559             -15.0848
        10        2.0000           -0.5304354             -14.4339
        11        2.0000           -0.5212200             -14.1831
        12        2.0000           -0.5047200             -13.7341
        13        2.0000           -0.4784576             -13.0195
        14        2.0000           -0.4662913             -12.6884
        15        2.0000           -0.4443846             -12.0923
        16        2.0000           -0.4346530             -11.8275
        17        2.0000           -0.4102311             -11.1630
        18        2.0000           -0.4030138             -10.9666
        19        2.0000           -0.4005614             -10.8998
        20        2.0000           -0.4003274             -10.8935 (HOMO)
        21                         -0.0225030              -0.6123 (LUMO)
        22                          0.0510881               1.3902
        23                          0.0827831               2.2526
        24                          0.0907157               2.4685
        25                          0.1060183               2.8849
        26                          0.1155469               3.1442
        27                          0.1175676               3.1992
        28                          0.1186246               3.2279
        29                          0.1198614               3.2616
        30                          0.1206881               3.2841
        31                          0.1312243               3.5708
       ...                                ...                  ...
        39                          0.2975098               8.0957
      -------------------------------------------------------------
                  HL-Gap            0.3778244 Eh           10.2811 eV

     #   Z          covCN         q      C6AA      α(0)
     1   8 O        1.655    -0.506    23.018     6.477
     2   6 C        3.674     0.072    19.598     6.344
     3   6 C        3.801    -0.089    22.206     6.709
     4   6 C        3.732    -0.025    21.112     6.558
     5   7 N        3.484    -0.164    24.543     7.358
     6  17 Cl       0.041    -0.950   124.985    17.015
     7   1 H        0.805     0.354     0.578     1.194
     8   1 H        0.924     0.022     2.698     2.569
     9   1 H        0.924     0.050     2.315     2.379
    10   1 H        0.925     0.070     2.089     2.260
    11   1 H        0.925     0.062     2.181     2.310
    12   1 H        0.924     0.113     1.671     2.022
    13   1 H        0.925     0.101     1.774     2.083
    14   1 H        0.859     0.292     0.738     1.345
    15   1 H        0.860     0.305     0.699     1.310
    16   1 H        0.897     0.293     0.730     1.337

Wiberg/Mayer (AO) data.
largest (>0.10) Wiberg bond orders for each atom

     #   Z sym  total        # sym  WBO       # sym  WBO       # sym  WBO
 ---------------------------------------------------------------------------
     1   8 O    1.920 --     2 C    0.999     7 H    0.862
     2   6 C    3.955 --     1 O    0.999     3 C    0.994     8 H    0.972
                             9 H    0.971
     3   6 C    3.992 --     4 C    1.012     2 C    0.994    11 H    0.972
                            10 H    0.971
     4   6 C    3.931 --     3 C    1.012    13 H    0.969     5 N    0.968
                            12 H    0.965
     5   7 N    3.648 --     4 C    0.968    14 H    0.898    15 H    0.894
                            16 H    0.836
     6  17 Cl   0.098
     7   1 H    0.874 --     1 O    0.862
     8   1 H    1.000 --     2 C    0.972
     9   1 H    0.997 --     2 C    0.971
    10   1 H    0.995 --     3 C    0.971
    11   1 H    0.996 --     3 C    0.972
    12   1 H    0.987 --     4 C    0.965
    13   1 H    0.990 --     4 C    0.969
    14   1 H    0.915 --     5 N    0.898
    15   1 H    0.907 --     5 N    0.894
    16   1 H    0.914 --     5 N    0.836
 ---------------------------------------------------------------------------

molecular dipole:
                 x           y           z       tot (Debye)
 q only:        3.706       3.760      -1.714
   full:        3.096       3.260      -1.574      12.108

           -------------------------------------------------
          | TOTAL ENERGY              -23.094430459668 Eh   |
          | GRADIENT NORM               0.000585370135 Eh/α |
          | HOMO-LUMO GAP              10.281125529412 eV   |
           -------------------------------------------------

 * finished run on 2023/01/24 at 15:06:40.397
