   * xtb version 6.5.1 (fef0646) compiled by 'conda@b96dff2e9fd6' on 2023-01-04
          program call               : xtb init.xyz --opt -c 0 -u 0 -P 16 --input xtb.inp

   ID    Z sym.   atoms
    1    8 O      1
    2    6 C      2-4
    3    7 N      5
    4   17 Cl     6
    5    1 H      7-16

          :  Hamiltonian                  GFN2-xTB          :
 * total energy  :   -22.9983024 Eh     change       -0.2296474E-10 Eh
 * total energy  :   -23.0197589 Eh     change       -0.2145652E-01 Eh
 * total energy  :   -23.0213570 Eh     change       -0.1598096E-02 Eh
 * total energy  :   -23.0314494 Eh     change       -0.1009243E-01 Eh
 * total energy  :   -23.0344852 Eh     change       -0.3035767E-02 Eh
 * total energy  :   -23.0381242 Eh     change       -0.3639003E-02 Eh
 * total energy  :   -23.0398032 Eh     change       -0.1679026E-02 Eh
 * total energy  :   -23.0411256 Eh     change       -0.1322396E-02 Eh
 * total energy  :   -23.0421512 Eh     change       -0.1025538E-02 Eh
 * total energy  :   -23.0427020 Eh     change       -0.5508035E-03 Eh
 * total energy  :   -23.0438770 Eh     change       -0.3291132E-04 Eh
 * total energy  :   -23.0439196 Eh     change       -0.4260656E-04 Eh
 * total energy  :   -23.0439507 Eh     change       -0.3113395E-04 Eh
 * total energy  :   -23.0439675 Eh     change       -0.1671802E-04 Eh
 * total energy  :   -23.0439813 Eh     change       -0.1385617E-04 Eh
 * total energy  :   -23.0439898 Eh     change       -0.8494653E-05 Eh
 * total energy  :   -23.0439954 Eh     change       -0.5572682E-05 Eh
 * total energy  :   -23.0440019 Eh     change       -0.6563110E-05 Eh
 * total energy  :   -23.0440058 Eh     change       -0.3891399E-05 Eh
   *** GEOMETRY OPTIMIZATION CONVERGED AFTER 28 ITERATIONS ***

 final structure:
================
16
 xtb: 6.5.1 (fef0646)
O            3.50514707915304       -1.23321579173572       -1.22385783436945
C            2.51830441071006       -0.71694192326126       -0.34711257028182
C            2.95644268956920       -0.93716511981179        1.10116896612767
C            4.40894104022986       -0.52840313357191        1.34490181304350
N            4.63672677615142        0.85713369840646        0.93163819686630
Cl           2.54042371027612        2.61690908209071        1.90079168991856
H            3.15459278412735       -1.23816762968479       -2.11922957441809
H            1.55769875782587       -1.22230594906009       -0.50805090668895
H            2.37293507936738        0.35641594890960       -0.53017524940165
H            2.85801554168142       -1.99323464335781        1.35260596523512
H            2.29751541598442       -0.35588159966854        1.74415822681761
H            5.06695127822162       -1.21891248498204        0.80460737050687
H            4.62264922150099       -0.60417726118084        2.41281028069360
H            4.60480243449121        0.91856416839815       -0.08075913055943
H            5.54007646620000        1.18990688209580        1.24983082300472
H            3.55458731451013        1.75861575641438        1.45816193350597

          :  Hamiltonian                  GFN2-xTB          :
         :: total energy             -23.044005833208 Eh    ::
         :: gradient norm              0.000227625104 Eh/a0 ::
         :: HOMO-LUMO gap              9.143027514302 eV    ::
         :: SCC energy               -23.241876209751 Eh    ::
         :: -> dispersion             -0.009334146438 Eh    ::
         :: repulsion energy           0.197834348003 Eh    ::

    * Orbital Energies and Occupations

         #    Occupation            Energy/Eh            Energy/eV
      -------------------------------------------------------------
         1        2.0000           -1.0114076             -27.5218
       ...           ...                  ...                  ...
         8        2.0000           -0.5603033             -15.2466
         9        2.0000           -0.5433699             -14.7858
        10        2.0000           -0.5327785             -14.4976
        11        2.0000           -0.5262752             -14.3207
        12        2.0000           -0.5010833             -13.6352
        13        2.0000           -0.4860980             -13.2274
        14        2.0000           -0.4716923             -12.8354
        15        2.0000           -0.4602822             -12.5249
        16        2.0000           -0.4503775             -12.2554
        17        2.0000           -0.4192439             -11.4082
        18        2.0000           -0.3942392             -10.7278
        19        2.0000           -0.3888427             -10.5809
        20        2.0000           -0.3887817             -10.5793 (HOMO)
        21                         -0.0527816              -1.4363 (LUMO)
        22                          0.0240348               0.6540
        23                          0.0320885               0.8732
        24                          0.0746422               2.0311
        25                          0.0751021               2.0436
        26                          0.0803484               2.1864
        27                          0.0805875               2.1929
        28                          0.0811447               2.2081
        29                          0.1031501               2.8069
        30                          0.1094737               2.9789
        31                          0.1254014               3.4123
       ...                                ...                  ...
        39                          0.2878327               7.8323
      -------------------------------------------------------------
                  HL-Gap            0.3360001 Eh            9.1430 eV

     #   Z          covCN         q      C6AA      α(0)
     1   8 O        1.655    -0.446    21.767     6.298
     2   6 C        3.673     0.080    19.467     6.323
     3   6 C        3.801    -0.076    21.960     6.672
     4   6 C        3.731     0.008    20.540     6.469
     5   7 N        2.766    -0.291    27.490     7.787
     6  17 Cl       0.833    -0.517   116.295    16.497
     7   1 H        0.805     0.285     0.767     1.376
     8   1 H        0.924     0.024     2.679     2.560
     9   1 H        0.923     0.034     2.537     2.491
    10   1 H        0.925     0.055     2.253     2.347
    11   1 H        0.925     0.066     2.125     2.280
    12   1 H        0.924     0.049     2.339     2.392
    13   1 H        0.924     0.050     2.324     2.384
    14   1 H        0.860     0.183     1.196     1.713
    15   1 H        0.860     0.168     1.284     1.775
    16   1 H        0.967     0.329     0.627     1.238

Wiberg/Mayer (AO) data.
largest (>0.10) Wiberg bond orders for each atom

     #   Z sym  total        # sym  WBO       # sym  WBO       # sym  WBO
 ---------------------------------------------------------------------------
     1   8 O    1.949 --     2 C    0.990     7 H    0.905
     2   6 C    3.955 --     3 C    1.004     1 O    0.990     8 H    0.974
                             9 H    0.969
     3   6 C    3.994 --     4 C    1.006     2 C    1.004    10 H    0.975
                            11 H    0.972
     4   6 C    3.974 --     3 C    1.006     5 N    1.003    13 H    0.976
                            12 H    0.972
     5   7 N    3.287 --     4 C    1.003    15 H    0.958    14 H    0.952
                            16 H    0.251
     6  17 Cl   0.736 --    16 H    0.635
     7   1 H    0.919 --     1 O    0.905
     8   1 H    0.999 --     2 C    0.974
     9   1 H    0.999 --     2 C    0.969
    10   1 H    0.997 --     3 C    0.975
    11   1 H    0.996 --     3 C    0.972
    12   1 H    0.998 --     4 C    0.972
    13   1 H    0.998 --     4 C    0.976
    14   1 H    0.966 --     5 N    0.952
    15   1 H    0.972 --     5 N    0.958
    16   1 H    0.892 --     6 Cl   0.635     5 N    0.251
 ---------------------------------------------------------------------------

molecular dipole:
                 x           y           z       tot (Debye)
 q only:        1.002      -1.302      -0.791
   full:        0.787      -1.062      -0.940       4.122

           -------------------------------------------------
          | TOTAL ENERGY              -23.044005833208 Eh   |
          | GRADIENT NORM               0.000227625104 Eh/α |
          | HOMO-LUMO GAP               9.143027514302 eV   |
           -------------------------------------------------

 * finished run on 2023/01/23 at 18:35:11.094
