   * xtb version 6.5.1 (fef0646) compiled by 'conda@b96dff2e9fd6' on 2023-01-04
          program call               : xtb init.xyz --opt -c 1 -u 0 -P 16

   ID    Z sym.   atoms
    1    7 N      1
    2    6 C      2-4
    3    1 H      5-12

          :  Hamiltonian                  GFN2-xTB          :
 * total energy  :   -12.9498695 Eh     change       -0.1528555E-09 Eh
 * total energy  :   -12.9511220 Eh     change       -0.1252560E-02 Eh
 * total energy  :   -12.9513947 Eh     change       -0.2727265E-03 Eh
 * total energy  :   -12.9514741 Eh     change       -0.7936101E-04 Eh
 * total energy  :   -12.9515551 Eh     change       -0.8100479E-04 Eh
 * total energy  :   -12.9516104 Eh     change       -0.5527939E-04 Eh
 * total energy  :   -12.9516772 Eh     change       -0.6677976E-04 Eh
 * total energy  :   -12.9517218 Eh     change       -0.4466512E-04 Eh
 * total energy  :   -12.9517363 Eh     change       -0.1446674E-04 Eh
 * total energy  :   -12.9517364 Eh     change       -0.4888126E-07 Eh
 * total energy  :   -12.9517431 Eh     change       -0.6749902E-05 Eh
 * total energy  :   -12.9517438 Eh     change       -0.7137957E-06 Eh
   *** GEOMETRY OPTIMIZATION CONVERGED AFTER 12 ITERATIONS ***

 final structure:
================
12
 xtb: 6.5.1 (fef0646)
N            1.02843911219797       -0.03479858967365        0.01797002352256
C            2.50962691556398       -0.05029075477647        0.12233744998442
C            3.27919004608028        0.76549804160305       -0.86703842595196
C            3.27086226999503       -0.72969662258923       -0.97104762566347
H            0.63247125597475        0.76876321295036        0.52589908792026
H            0.62368377934116       -0.89956445382782        0.40388169051072
H            0.75851100092416        0.03907729959362       -0.97333863427825
H            2.84459416103184       -0.12362414826531        1.14702570668694
H            4.17581608338835        1.25879983944800       -0.52844093946982
H            2.73264861127397        1.33678073725445       -1.60169599638244
H            4.16177308341072       -1.27480054005312       -0.70424304013231
H            2.71898368081779       -1.18800402166386       -1.77737929674665

          :  Hamiltonian                  GFN2-xTB          :
         :: total energy             -12.951743818911 Eh    ::
         :: gradient norm              0.000311755746 Eh/a0 ::
         :: HOMO-LUMO gap              9.456903682288 eV    ::
         :: SCC energy               -13.150391568936 Eh    ::
         :: -> dispersion             -0.004177460545 Eh    ::
         :: repulsion energy           0.198644401108 Eh    ::

    * Orbital Energies and Occupations

         #    Occupation            Energy/Eh            Energy/eV
      -------------------------------------------------------------
         1        2.0000           -0.9027468             -24.5650
         2        2.0000           -0.8579342             -23.3456
         3        2.0000           -0.8186541             -22.2767
         4        2.0000           -0.8079177             -21.9846
         5        2.0000           -0.7984136             -21.7259
         6        2.0000           -0.7425248             -20.2051
         7        2.0000           -0.7331951             -19.9513
         8        2.0000           -0.6886937             -18.7403
         9        2.0000           -0.6629615             -18.0401
        10        2.0000           -0.6239663             -16.9790
        11        2.0000           -0.6169677             -16.7885
        12        2.0000           -0.6126665             -16.6715 (HOMO)
        13                         -0.2651317              -7.2146 (LUMO)
        14                         -0.2480678              -6.7503
        15                         -0.1673760              -4.5545
        16                         -0.1036846              -2.8214
        17                         -0.0834624              -2.2711
        18                         -0.0720638              -1.9610
        19                         -0.0416213              -1.1326
        20                          0.0086581               0.2356
        21                          0.0877034               2.3865
        22                          0.1245557               3.3893
        23                          0.1494759               4.0674
        24                          0.1790280               4.8716
      -------------------------------------------------------------
                  HL-Gap            0.3475348 Eh            9.4569 eV

     #   Z          covCN         q      C6AA      α(0)
     1   7 N        3.483    -0.126    23.734     7.236
     2   6 C        3.785     0.012    20.393     6.432
     3   6 C        3.806    -0.078    21.988     6.675
     4   6 C        3.806    -0.078    21.989     6.675
     5   1 H        0.859     0.272     0.803     1.404
     6   1 H        0.859     0.272     0.803     1.404
     7   1 H        0.859     0.277     0.787     1.389
     8   1 H        0.926     0.102     1.771     2.081
     9   1 H        0.926     0.098     1.806     2.102
    10   1 H        0.926     0.077     2.014     2.219
    11   1 H        0.926     0.098     1.806     2.102
    12   1 H        0.926     0.077     2.013     2.219

Wiberg/Mayer (AO) data.
largest (>0.10) Wiberg bond orders for each atom

     #   Z sym  total        # sym  WBO       # sym  WBO       # sym  WBO
 ---------------------------------------------------------------------------
     1   7 N    3.676 --     2 C    0.918     5 H    0.909     6 H    0.909
                             7 H    0.904
     2   6 C    3.843 --     4 C    0.976     3 C    0.976     8 H    0.960
                             1 N    0.918
     3   6 C    3.933 --     4 C    0.988     2 C    0.976    10 H    0.972
                             9 H    0.970
     4   6 C    3.933 --     3 C    0.988     2 C    0.976    12 H    0.972
                            11 H    0.970
     5   1 H    0.926 --     1 N    0.909
     6   1 H    0.926 --     1 N    0.909
     7   1 H    0.923 --     1 N    0.904
     8   1 H    0.990 --     2 C    0.960
     9   1 H    0.990 --     3 C    0.970
    10   1 H    0.994 --     3 C    0.972
    11   1 H    0.990 --     4 C    0.970
    12   1 H    0.994 --     4 C    0.972
 ---------------------------------------------------------------------------

molecular dipole:
                 x           y           z       tot (Debye)
 q only:        2.759      -0.050      -0.258
   full:        2.469      -0.052      -0.206       6.299

           -------------------------------------------------
          | TOTAL ENERGY              -12.951743818911 Eh   |
          | GRADIENT NORM               0.000311755746 Eh/α |
          | HOMO-LUMO GAP               9.456903682288 eV   |
           -------------------------------------------------

 * finished run on 2023/01/23 at 13:41:47.315
