   * xtb version 6.5.1 (fef0646) compiled by 'conda@b96dff2e9fd6' on 2023-01-04
          program call               : xtb init.xyz --opt -c 0 -u 0 -P 16

   ID    Z sym.   atoms
    1    7 N      1
    2    6 C      2-5
    3   17 Cl     6
    4    1 H      7-14

          :  Hamiltonian                  GFN2-xTB          :
 * total energy  :   -19.9799818 Eh     change       -0.7264589E-09 Eh
 * total energy  :   -20.0067546 Eh     change       -0.2677282E-01 Eh
 * total energy  :   -20.0113821 Eh     change       -0.4627453E-02 Eh
 * total energy  :   -20.0158614 Eh     change       -0.4479304E-02 Eh
 * total energy  :   -20.0200435 Eh     change       -0.4182152E-02 Eh
 * total energy  :   -20.0237752 Eh     change       -0.3731640E-02 Eh
 * total energy  :   -20.0281118 Eh     change       -0.4336666E-02 Eh
 * total energy  :   -20.0299084 Eh     change       -0.1796568E-02 Eh
 * total energy  :   -20.0309769 Eh     change       -0.1068459E-02 Eh
 * total energy  :   -20.0315443 Eh     change       -0.5674381E-03 Eh
 * total energy  :   -20.0331441 Eh     change       -0.1253628E-04 Eh
 * total energy  :   -20.0331567 Eh     change       -0.1252440E-04 Eh
 * total energy  :   -20.0331800 Eh     change       -0.2334584E-04 Eh
 * total energy  :   -20.0331902 Eh     change       -0.1014247E-04 Eh
 * total energy  :   -20.0331957 Eh     change       -0.5576147E-05 Eh
 * total energy  :   -20.0332024 Eh     change       -0.6676287E-05 Eh
 * total energy  :   -20.0332081 Eh     change       -0.5732517E-05 Eh
 * total energy  :   -20.0332140 Eh     change       -0.5869719E-05 Eh
 * total energy  :   -20.0332150 Eh     change       -0.9950128E-06 Eh
   *** GEOMETRY OPTIMIZATION CONVERGED AFTER 30 ITERATIONS ***

 final structure:
================
14
 xtb: 6.5.1 (fef0646)
N            1.09315110159003        0.00241288580511       -0.36562118876095
C            2.52869992353289       -0.13198983234968       -0.12438621922192
C            3.00972695950710        1.01622320773273        0.76734922545199
C            4.42628402594391        0.90001323911221        1.04367163545509
C            5.60018829958841        0.78967916877610        1.24658434589633
Cl          -0.34103680817373        0.14918750139967        2.19340920564174
H            0.73306803460074       -0.78399496640234       -0.89432296937333
H            0.88994345005618        0.85798773699594       -0.87276591786170
H            0.33250288683305        0.07292977245118        0.99986307011440
H            3.11041682309675       -0.14082848523764       -1.05738184052344
H            2.69406061491855       -1.08237648811464        0.38805739098198
H            2.45267093358032        0.99838749487454        1.70640017559490
H            2.82017739898345        1.97402135023190        0.27366066929154
H            6.62595635594185        0.70381741472460        1.44737241731200

          :  Hamiltonian                  GFN2-xTB          :
         :: total energy             -20.033215008641 Eh    ::
         :: gradient norm              0.000499276966 Eh/a0 ::
         :: HOMO-LUMO gap              6.525225094607 eV    ::
         :: SCC energy               -20.321460934474 Eh    ::
         :: -> dispersion             -0.007834500241 Eh    ::
         :: repulsion energy           0.288240651676 Eh    ::

    * Orbital Energies and Occupations

         #    Occupation            Energy/Eh            Energy/eV
      -------------------------------------------------------------
         1        2.0000           -1.0204960             -27.7691
       ...           ...                  ...                  ...
         6        2.0000           -0.5635757             -15.3357
         7        2.0000           -0.5546544             -15.0929
         8        2.0000           -0.5292905             -14.4027
         9        2.0000           -0.5194362             -14.1346
        10        2.0000           -0.4999905             -13.6054
        11        2.0000           -0.4855362             -13.2121
        12        2.0000           -0.4734456             -12.8831
        13        2.0000           -0.4685046             -12.7487
        14        2.0000           -0.4154545             -11.3051
        15        2.0000           -0.4107893             -11.1781
        16        2.0000           -0.4022051             -10.9446
        17        2.0000           -0.3972545             -10.8098
        18        2.0000           -0.3969838             -10.8025 (HOMO)
        19                         -0.1571862              -4.2773 (LUMO)
        20                         -0.1510066              -4.1091
        21                         -0.0595255              -1.6198
        22                          0.0111199               0.3026
        23                          0.0635152               1.7283
        24                          0.0642110               1.7473
        25                          0.0694409               1.8896
        26                          0.0698237               1.9000
        27                          0.0734698               1.9992
        28                          0.0964296               2.6240
        29                          0.1096325               2.9833
       ...                                ...                  ...
        37                          1.4342859              39.0289
      -------------------------------------------------------------
                  HL-Gap            0.2397976 Eh            6.5252 eV

     #   Z          covCN         q      C6AA      α(0)
     1   7 N        2.691    -0.305    27.859     7.839
     2   6 C        3.736     0.014    20.426     6.450
     3   6 C        3.805    -0.056    21.571     6.612
     4   6 C        1.968    -0.025    31.721     9.095
     5   6 C        1.909    -0.111    34.201     9.445
     6  17 Cl       0.837    -0.485   115.130    16.415
     7   1 H        0.860     0.165     1.301     1.786
     8   1 H        0.860     0.167     1.288     1.778
     9   1 H        0.897     0.333     0.620     1.232
    10   1 H        0.923     0.028     2.613     2.528
    11   1 H        0.924     0.055     2.258     2.350
    12   1 H        0.924     0.083     1.944     2.180
    13   1 H        0.924     0.058     2.225     2.332
    14   1 H        0.928     0.078     2.003     2.213

Wiberg/Mayer (AO) data.
largest (>0.10) Wiberg bond orders for each atom

     #   Z sym  total        # sym  WBO       # sym  WBO       # sym  WBO
 ---------------------------------------------------------------------------
     1   7 N    3.237 --     2 C    1.005     7 H    0.959     8 H    0.958
                             9 H    0.204
     2   6 C    3.973 --     1 N    1.005     3 C    0.987    11 H    0.975
                            10 H    0.973
     3   6 C    3.994 --     4 C    1.053     2 C    0.987    13 H    0.954
                            12 H    0.949
     4   6 C    3.979 --     5 C    2.898     3 C    1.053
     5   6 C    3.973 --     4 C    2.898    14 H    0.971
     6  17 Cl   0.768 --     9 H    0.680
     7   1 H    0.972 --     1 N    0.959
     8   1 H    0.972 --     1 N    0.958
     9   1 H    0.889 --     6 Cl   0.680     1 N    0.204
    10   1 H    0.999 --     2 C    0.973
    11   1 H    0.997 --     2 C    0.975
    12   1 H    0.993 --     3 C    0.949
    13   1 H    0.997 --     3 C    0.954
    14   1 H    0.994 --     5 C    0.971
 ---------------------------------------------------------------------------

molecular dipole:
                 x           y           z       tot (Debye)
 q only:        0.880      -0.028      -1.625
   full:        0.666      -0.052      -1.604       4.416

           -------------------------------------------------
          | TOTAL ENERGY              -20.033215008641 Eh   |
          | GRADIENT NORM               0.000499276966 Eh/α |
          | HOMO-LUMO GAP               6.525225094607 eV   |
           -------------------------------------------------

 * finished run on 2023/01/23 at 13:48:04.230
