   * xtb version 6.5.1 (fef0646) compiled by 'conda@b96dff2e9fd6' on 2023-01-04
          program call               : xtb init.xyz --opt -c 0 -u 0 -P 16

   ID    Z sym.   atoms
    1    7 N      1
    2    6 C      2-5
    3   17 Cl     6
    4    1 H      7-16

          :  Hamiltonian                  GFN2-xTB          :
 * total energy  :   -21.0735239 Eh     change       -0.7307328E-09 Eh
 * total energy  :   -21.0802434 Eh     change       -0.6719462E-02 Eh
 * total energy  :   -21.0848903 Eh     change       -0.4646982E-02 Eh
 * total energy  :   -21.0878448 Eh     change       -0.2954495E-02 Eh
 * total energy  :   -21.0904658 Eh     change       -0.2620950E-02 Eh
 * total energy  :   -21.0920659 Eh     change       -0.1600144E-02 Eh
 * total energy  :   -21.0925396 Eh     change       -0.4736809E-03 Eh
 * total energy  :   -21.0927798 Eh     change       -0.2402237E-03 Eh
 * total energy  :   -21.0928694 Eh     change       -0.8955416E-04 Eh
 * total energy  :   -21.0929234 Eh     change       -0.5403128E-04 Eh
 * total energy  :   -21.0929985 Eh     change       -0.7513317E-04 Eh
 * total energy  :   -21.0930628 Eh     change       -0.6426687E-04 Eh
 * total energy  :   -21.0931196 Eh     change       -0.5680042E-04 Eh
 * total energy  :   -21.0931346 Eh     change       -0.1499614E-04 Eh
 * total energy  :   -21.0931481 Eh     change       -0.1353643E-04 Eh
 * total energy  :   -21.0931597 Eh     change       -0.1160312E-04 Eh
 * total energy  :   -21.0931914 Eh     change       -0.3166721E-04 Eh
 * total energy  :   -21.0931951 Eh     change       -0.3639709E-05 Eh
   *** GEOMETRY OPTIMIZATION CONVERGED AFTER 18 ITERATIONS ***

 final structure:
================
16
 xtb: 6.5.1 (fef0646)
N            1.11141836573949       -0.11963093640505       -0.51767035823381
C            2.55435802999079       -0.32891160786240       -0.62782971246297
C            3.00057965183937       -1.41937904463608        0.34835989010054
C            4.48928879804143       -1.56075712017214        0.35323981351790
C            5.13685820073435       -2.66266409735555        0.02673546013375
Cl           0.45170405028665        0.69059522718680        2.22211184727911
H            0.79571991631898        0.60784633147059       -1.14929933517128
H            0.76367936975131        0.30981182299539        0.94043698441027
H            0.60664139309487       -0.97580550435368       -0.72364917455662
H            3.04295679132631        0.61421615535881       -0.37223555159955
H            2.85698319113974       -0.60654820328827       -1.64769734957642
H            2.53656753750775       -2.36944032381605        0.07578769057159
H            2.65729055235569       -1.14166074496521        1.34727821705957
H            5.03370183485788       -0.67318088438877        0.64726789824786
H            4.61640599735350       -3.56022272008414       -0.26631054658694
H            6.21134631966188       -2.72251834968406        0.04795422686734

          :  Hamiltonian                  GFN2-xTB          :
         :: total energy             -21.093195059086 Eh    ::
         :: gradient norm              0.000507118313 Eh/a0 ::
         :: HOMO-LUMO gap              5.040696077108 eV    ::
         :: SCC energy               -21.346481004114 Eh    ::
         :: -> dispersion             -0.008991933862 Eh    ::
         :: repulsion energy           0.253275789854 Eh    ::

    * Orbital Energies and Occupations

         #    Occupation            Energy/Eh            Energy/eV
      -------------------------------------------------------------
         1        2.0000           -1.0181316             -27.7048
       ...           ...                  ...                  ...
         7        2.0000           -0.5517454             -15.0138
         8        2.0000           -0.5438683             -14.7994
         9        2.0000           -0.5256005             -14.3023
        10        2.0000           -0.5051368             -13.7455
        11        2.0000           -0.4935094             -13.4291
        12        2.0000           -0.4815358             -13.1033
        13        2.0000           -0.4721198             -12.8470
        14        2.0000           -0.4496588             -12.2358
        15        2.0000           -0.4380196             -11.9191
        16        2.0000           -0.4113602             -11.1937
        17        2.0000           -0.3998987             -10.8818
        18        2.0000           -0.3950971             -10.7511
        19        2.0000           -0.3948885             -10.7455 (HOMO)
        20                         -0.2096463              -5.7048 (LUMO)
        21                         -0.0572484              -1.5578
        22                          0.0153747               0.4184
        23                          0.0660055               1.7961
        24                          0.0664868               1.8092
        25                          0.0719797               1.9587
        26                          0.0721974               1.9646
        27                          0.0893656               2.4318
        28                          0.1001764               2.7259
        29                          0.1166476               3.1741
        30                          0.1257976               3.4231
       ...                                ...                  ...
        39                          0.6186853              16.8353
      -------------------------------------------------------------
                  HL-Gap            0.1852422 Eh            5.0407 eV

     #   Z          covCN         q      C6AA      α(0)
     1   7 N        2.695    -0.305    27.851     7.838
     2   6 C        3.733     0.010    20.488     6.460
     3   6 C        3.808    -0.075    21.918     6.664
     4   6 C        2.888    -0.028    28.705     8.784
     5   6 C        2.837    -0.094    30.352     9.028
     6  17 Cl       0.837    -0.486   115.186    16.419
     7   1 H        0.860     0.166     1.296     1.783
     8   1 H        0.902     0.333     0.621     1.233
     9   1 H        0.860     0.168     1.286     1.777
    10   1 H        0.924     0.054     2.271     2.356
    11   1 H        0.923     0.025     2.654     2.548
    12   1 H        0.924     0.044     2.391     2.418
    13   1 H        0.924     0.072     2.059     2.244
    14   1 H        0.925     0.037     2.489     2.467
    15   1 H        0.926     0.039     2.466     2.456
    16   1 H        0.926     0.039     2.456     2.451

Wiberg/Mayer (AO) data.
largest (>0.10) Wiberg bond orders for each atom

     #   Z sym  total        # sym  WBO       # sym  WBO       # sym  WBO
 ---------------------------------------------------------------------------
     1   7 N    3.239 --     2 C    1.005     7 H    0.959     9 H    0.958
                             8 H    0.207
     2   6 C    3.974 --     1 N    1.005     3 C    0.992    10 H    0.974
                            11 H    0.974
     3   6 C    3.994 --     4 C    1.025     2 C    0.992    12 H    0.974
                            13 H    0.956
     4   6 C    3.991 --     5 C    1.981     3 C    1.025    14 H    0.966
     5   6 C    3.991 --     4 C    1.981    16 H    0.977    15 H    0.975
     6  17 Cl   0.766 --     8 H    0.678
     7   1 H    0.972 --     1 N    0.959
     8   1 H    0.889 --     6 Cl   0.678     1 N    0.207
     9   1 H    0.972 --     1 N    0.958
    10   1 H    0.997 --     2 C    0.974
    11   1 H    0.999 --     2 C    0.974
    12   1 H    0.998 --     3 C    0.974
    13   1 H    0.995 --     3 C    0.956
    14   1 H    0.999 --     4 C    0.966
    15   1 H    0.998 --     5 C    0.975
    16   1 H    0.998 --     5 C    0.977
 ---------------------------------------------------------------------------

molecular dipole:
                 x           y           z       tot (Debye)
 q only:        0.519      -0.572      -1.726
   full:        0.341      -0.485      -1.679       4.527

           -------------------------------------------------
          | TOTAL ENERGY              -21.093195059086 Eh   |
          | GRADIENT NORM               0.000507118313 Eh/α |
          | HOMO-LUMO GAP               5.040696077108 eV   |
           -------------------------------------------------

 * finished run on 2023/01/23 at 14:11:35.093
