   * xtb version 6.5.1 (fef0646) compiled by 'conda@b96dff2e9fd6' on 2023-01-04
          program call               : xtb init.xyz --opt -c 1 -u 0 -P 16 --input xtb.inp

   ID    Z sym.   atoms
    1    7 N      1
    2    6 C      2-9
    3    1 H      10-27

          :  Hamiltonian                  GFN2-xTB          :
 * total energy  :   -28.8197807 Eh     change       -0.8417089E-10 Eh
 * total energy  :   -28.8213078 Eh     change       -0.1527092E-02 Eh
 * total energy  :   -28.8216671 Eh     change       -0.3593170E-03 Eh
 * total energy  :   -28.8217903 Eh     change       -0.1231716E-03 Eh
 * total energy  :   -28.8218671 Eh     change       -0.7673798E-04 Eh
 * total energy  :   -28.8219096 Eh     change       -0.4252664E-04 Eh
 * total energy  :   -28.8219542 Eh     change       -0.4464724E-04 Eh
 * total energy  :   -28.8219919 Eh     change       -0.3766734E-04 Eh
 * total energy  :   -28.8220314 Eh     change       -0.3953256E-04 Eh
 * total energy  :   -28.8220655 Eh     change       -0.3401958E-04 Eh
 * total energy  :   -28.8220903 Eh     change       -0.2485162E-04 Eh
 * total energy  :   -28.8221079 Eh     change       -0.1757559E-04 Eh
 * total energy  :   -28.8221210 Eh     change       -0.1307617E-04 Eh
 * total energy  :   -28.8221307 Eh     change       -0.9767935E-05 Eh
 * total energy  :   -28.8221361 Eh     change       -0.5425629E-05 Eh
 * total energy  :   -28.8221384 Eh     change       -0.2264093E-05 Eh
   *** GEOMETRY OPTIMIZATION CONVERGED AFTER 16 ITERATIONS ***

 final structure:
================
27
 xtb: 6.5.1 (fef0646)
N            0.94531749868339        2.13527375985685        0.16364851297956
C            2.44323378864710        2.13185862864108        0.23447666942401
C            3.00897456405268        1.06485631915293       -0.68964553605687
C            4.54822906870590        1.06232075412432       -0.71113057239891
C            5.04237978094375        0.16116360327372       -1.84678019149890
C            6.56684288407959        0.15611512911589       -1.91193748967684
C            7.15502227317543       -0.31508551208326       -0.58702470098308
C            6.66828285612712        0.57587406814205        0.54981909631907
C            5.14204532994516        0.58394112736074        0.61542124116188
H            0.53846216336509        2.84633017757702        0.78426313923927
H            0.58540894660254        1.21060803922536        0.43551663057671
H            0.64394698061460        2.32368520434965       -0.80195201370186
H            2.73396173124073        1.94321150889839        1.26760309167955
H            2.80405384536560        3.11869960397785       -0.05814308477735
H            2.65482809808327        1.24428544595101       -1.70769950836480
H            2.66431897385636        0.07720133794597       -0.37623554149157
H            4.89556736081014        2.08248372481280       -0.90491892778224
H            4.63607626659076        0.50757113459756       -2.79938554020762
H            4.68581733234752       -0.85725442276907       -1.67891540215612
H            6.92460115515212        1.16404093993687       -2.13160345895842
H            6.89388164677844       -0.49790537667136       -2.72050269432445
H            8.24366316439827       -0.29180679008114       -0.63476057660366
H            6.85049889910633       -1.34654577487860       -0.39860288373628
H            7.02817937953513        1.59478697265847        0.39267806854706
H            7.07025809640510        0.22287195346330        1.50008935426847
H            4.82839424806434        1.23219986639315        1.43655976896642
H            4.78786366732356       -0.42785142297142        0.82471254955704

          :  Hamiltonian                  GFN2-xTB          :
         :: total energy             -28.822138413166 Eh    ::
         :: gradient norm              0.000257974886 Eh/a0 ::
         :: HOMO-LUMO gap              6.625052983364 eV    ::
         :: SCC energy               -29.237099963141 Eh    ::
         :: -> dispersion             -0.017794847146 Eh    ::
         :: repulsion energy           0.414904521554 Eh    ::

    * Orbital Energies and Occupations

         #    Occupation            Energy/Eh            Energy/eV
      -------------------------------------------------------------
         1        2.0000           -0.8954675             -24.3669
       ...           ...                  ...                  ...
        15        2.0000           -0.6281499             -17.0928
        16        2.0000           -0.6207229             -16.8907
        17        2.0000           -0.6005292             -16.3412
        18        2.0000           -0.5956388             -16.2082
        19        2.0000           -0.5892592             -16.0346
        20        2.0000           -0.5684690             -15.4688
        21        2.0000           -0.5669230             -15.4268
        22        2.0000           -0.5634177             -15.3314
        23        2.0000           -0.5451503             -14.8343
        24        2.0000           -0.5345410             -14.5456
        25        2.0000           -0.5136412             -13.9769
        26        2.0000           -0.5128488             -13.9553
        27        2.0000           -0.5094271             -13.8622 (HOMO)
        28                         -0.2659609              -7.2372 (LUMO)
        29                         -0.1630246              -4.4361
        30                         -0.1038088              -2.8248
        31                         -0.1027337              -2.7955
        32                         -0.0581714              -1.5829
        33                         -0.0519016              -1.4123
        34                         -0.0285661              -0.7773
        35                         -0.0274341              -0.7465
        36                         -0.0019925              -0.0542
        37                          0.0097118               0.2643
        38                          0.0171085               0.4655
       ...                                ...                  ...
        54                          0.2157572               5.8711
      -------------------------------------------------------------
                  HL-Gap            0.2434662 Eh            6.6251 eV

     #   Z          covCN         q      C6AA      α(0)
     1   7 N        3.483    -0.128    23.772     7.242
     2   6 C        3.730    -0.033    21.251     6.581
     3   6 C        3.805    -0.086    22.128     6.697
     4   6 C        3.855    -0.021    20.906     6.503
     5   6 C        3.809    -0.064    21.715     6.633
     6   6 C        3.806    -0.060    21.655     6.625
     7   6 C        3.806    -0.062    21.695     6.631
     8   6 C        3.806    -0.060    21.641     6.622
     9   6 C        3.807    -0.066    21.762     6.641
    10   1 H        0.859     0.269     0.815     1.414
    11   1 H        0.859     0.272     0.804     1.404
    12   1 H        0.859     0.271     0.805     1.406
    13   1 H        0.925     0.107     1.724     2.054
    14   1 H        0.924     0.105     1.738     2.062
    15   1 H        0.924     0.058     2.225     2.333
    16   1 H        0.924     0.060     2.195     2.317
    17   1 H        0.924     0.044     2.394     2.420
    18   1 H        0.924     0.034     2.532     2.488
    19   1 H        0.924     0.043     2.415     2.430
    20   1 H        0.924     0.040     2.451     2.448
    21   1 H        0.925     0.045     2.380     2.412
    22   1 H        0.925     0.045     2.386     2.416
    23   1 H        0.924     0.041     2.441     2.443
    24   1 H        0.924     0.039     2.464     2.455
    25   1 H        0.924     0.043     2.408     2.427
    26   1 H        0.924     0.022     2.704     2.571
    27   1 H        0.924     0.042     2.421     2.433

Wiberg/Mayer (AO) data.
largest (>0.10) Wiberg bond orders for each atom

     #   Z sym  total        # sym  WBO       # sym  WBO       # sym  WBO
 ---------------------------------------------------------------------------
     1   7 N    3.674 --     2 C    0.917    10 H    0.913    11 H    0.910
                            12 H    0.910
     2   6 C    3.882 --     3 C    1.008    14 H    0.967    13 H    0.964
                             1 N    0.917
     3   6 C    3.977 --     2 C    1.008     4 C    0.979    16 H    0.972
                            15 H    0.970
     4   6 C    3.986 --     9 C    0.998     5 C    0.994     3 C    0.979
                            17 H    0.966
     5   6 C    3.995 --     6 C    1.007     4 C    0.994    18 H    0.976
                            19 H    0.976
     6   6 C    3.995 --     7 C    1.010     5 C    1.007    20 H    0.977
                            21 H    0.976
     7   6 C    3.996 --     8 C    1.010     6 C    1.010    23 H    0.977
                            22 H    0.976
     8   6 C    3.996 --     7 C    1.010     9 C    1.006    24 H    0.977
                            25 H    0.976
     9   6 C    3.996 --     8 C    1.006     4 C    0.998    27 H    0.976
                            26 H    0.974
    10   1 H    0.927 --     1 N    0.913
    11   1 H    0.926 --     1 N    0.910
    12   1 H    0.926 --     1 N    0.910
    13   1 H    0.989 --     2 C    0.964
    14   1 H    0.989 --     2 C    0.967
    15   1 H    0.996 --     3 C    0.970
    16   1 H    0.996 --     3 C    0.972
    17   1 H    0.998 --     4 C    0.966
    18   1 H    0.999 --     5 C    0.976
    19   1 H    0.998 --     5 C    0.976
    20   1 H    0.998 --     6 C    0.977
    21   1 H    0.997 --     6 C    0.976
    22   1 H    0.998 --     7 C    0.976
    23   1 H    0.998 --     7 C    0.977
    24   1 H    0.998 --     8 C    0.977
    25   1 H    0.998 --     8 C    0.976
    26   1 H    1.000 --     9 C    0.974
    27   1 H    0.998 --     9 C    0.976
 ---------------------------------------------------------------------------

molecular dipole:
                 x           y           z       tot (Debye)
 q only:        3.060       3.623       0.090
   full:        2.680       3.717       0.138      11.653

           -------------------------------------------------
          | TOTAL ENERGY              -28.822138413166 Eh   |
          | GRADIENT NORM               0.000257974886 Eh/α |
          | HOMO-LUMO GAP               6.625052983364 eV   |
           -------------------------------------------------

 * finished run on 2023/01/23 at 19:50:25.460
