   * xtb version 6.5.1 (fef0646) compiled by 'conda@b96dff2e9fd6' on 2023-01-04
          program call               : xtb init.xyz --opt -c 1 -u 0 -P 16 --alpb water

   ID    Z sym.   atoms
    1    7 N      1
    2    6 C      2-9
    3    1 H      10-27

      * Solvation model:               ALPB
        Solvent                        water
        Solvent mass                       1.8000E+01 g/mol
          :  Hamiltonian                  GFN2-xTB          :
 * total energy  :   -28.9295438 Eh     change       -0.2177494E-09 Eh
 * total energy  :   -28.9310503 Eh     change       -0.1506543E-02 Eh
 * total energy  :   -28.9314041 Eh     change       -0.3537347E-03 Eh
 * total energy  :   -28.9315202 Eh     change       -0.1161335E-03 Eh
 * total energy  :   -28.9315999 Eh     change       -0.7975065E-04 Eh
 * total energy  :   -28.9316478 Eh     change       -0.4784348E-04 Eh
 * total energy  :   -28.9316989 Eh     change       -0.5115155E-04 Eh
 * total energy  :   -28.9317437 Eh     change       -0.4474618E-04 Eh
 * total energy  :   -28.9317952 Eh     change       -0.5150090E-04 Eh
 * total energy  :   -28.9318453 Eh     change       -0.5006660E-04 Eh
 * total energy  :   -28.9318789 Eh     change       -0.3364488E-04 Eh
 * total energy  :   -28.9318961 Eh     change       -0.1722509E-04 Eh
 * total energy  :   -28.9319060 Eh     change       -0.9869320E-05 Eh
 * total energy  :   -28.9319114 Eh     change       -0.5401022E-05 Eh
 * total energy  :   -28.9319140 Eh     change       -0.2559326E-05 Eh
   *** GEOMETRY OPTIMIZATION CONVERGED AFTER 15 ITERATIONS ***

 final structure:
================
27
 xtb: 6.5.1 (fef0646)
N            0.81455813322176        0.25575640239560       -0.12403398252662
C            2.29524929666738        0.19499331550325       -0.04516898341073
C            2.86700177805488       -0.39388566835417       -1.33003882438691
C            4.40080442858683       -0.39286713884466       -1.35192985725560
C            4.89708517893629       -0.74682324241605       -2.75730288731868
C            6.42142197157677       -0.74429031229423       -2.82184495570261
C            6.99951386783672       -1.72910536330781       -1.81048819508645
C            6.51650148216748       -1.38084793573929       -0.40629852931286
C            4.99105916619807       -1.38172694945038       -0.34311459289828
H            0.41823416403048        0.64414082621691        0.73934662679364
H            0.43203399758640       -0.68626591011916       -0.26843633904857
H            0.52622872735420        0.84474216266633       -0.91416986059402
H            2.57622267760316       -0.41824686100242        0.80933192009038
H            2.68790291372254        1.20059555145286        0.10393736873256
H            2.52328094022766        0.19305847686777       -2.18339070199130
H            2.52357596070863       -1.42075546219771       -1.46238997719463
H            4.76400933557629        0.61082934795941       -1.10656431814161
H            4.50617505382696       -0.03153648426015       -3.48386202274900
H            4.53259852432282       -1.73903771319747       -3.03312194982256
H            6.79694482759738        0.25837762614556       -2.60297129222616
H            6.75145318742918       -1.00810885448565       -3.82903267235260
H            8.09094915866462       -1.70699384182613       -1.84796791711160
H            6.68069522580977       -2.74269585938628       -2.06610453377637
H            6.89427305787029       -0.39251311326154       -0.13303189942035
H            6.91829346764422       -2.09884586227832        0.31193787808129
H            4.68812210176673       -1.12436410152132        0.67195413960106
H            4.62930137501230       -2.38787303526460       -0.56593364097139

          :  Hamiltonian                  GFN2-xTB          :
         :: total energy             -28.931913955945 Eh    ::
         :: gradient norm              0.000186222743 Eh/a0 ::
         :: HOMO-LUMO gap              9.642614907804 eV    ::
         :: SCC energy               -29.348176673738 Eh    ::
         :: -> dispersion             -0.017905751348 Eh    ::
         :: -> Gsolv                  -0.118068473934 Eh    ::
         :: repulsion energy           0.416205997002 Eh    ::

    * Orbital Energies and Occupations

         #    Occupation            Energy/Eh            Energy/eV
      -------------------------------------------------------------
         1        2.0000           -0.6919779             -18.8297
       ...           ...                  ...                  ...
        15        2.0000           -0.4960683             -13.4987
        16        2.0000           -0.4911175             -13.3640
        17        2.0000           -0.4906455             -13.3511
        18        2.0000           -0.4792868             -13.0421
        19        2.0000           -0.4620517             -12.5731
        20        2.0000           -0.4602545             -12.5242
        21        2.0000           -0.4581072             -12.4657
        22        2.0000           -0.4432805             -12.0623
        23        2.0000           -0.4330833             -11.7848
        24        2.0000           -0.4300884             -11.7033
        25        2.0000           -0.4172947             -11.3552
        26        2.0000           -0.4117147             -11.2033
        27        2.0000           -0.4066446             -11.0654 (HOMO)
        28                         -0.0522851              -1.4227 (LUMO)
        29                          0.0444045               1.2083
        30                          0.0703635               1.9147
        31                          0.0721244               1.9626
        32                          0.0905642               2.4644
        33                          0.1002011               2.7266
        34                          0.1125336               3.0622
        35                          0.1146920               3.1209
        36                          0.1217036               3.3117
        37                          0.1285535               3.4981
        38                          0.1353471               3.6830
       ...                                ...                  ...
        54                          0.3178933               8.6503
      -------------------------------------------------------------
                  HL-Gap            0.3543596 Eh            9.6426 eV

     #   Z          covCN         q      C6AA      α(0)
     1   7 N        3.485    -0.162    24.499     7.351
     2   6 C        3.731    -0.036    21.318     6.591
     3   6 C        3.806    -0.092    22.245     6.714
     4   6 C        3.855    -0.023    20.953     6.510
     5   6 C        3.809    -0.068    21.796     6.646
     6   6 C        3.805    -0.059    21.639     6.622
     7   6 C        3.805    -0.059    21.631     6.621
     8   6 C        3.805    -0.061    21.664     6.626
     9   6 C        3.808    -0.072    21.880     6.659
    10   1 H        0.859     0.316     0.668     1.280
    11   1 H        0.859     0.309     0.687     1.298
    12   1 H        0.859     0.308     0.690     1.301
    13   1 H        0.925     0.105     1.737     2.061
    14   1 H        0.925     0.107     1.722     2.052
    15   1 H        0.924     0.068     2.103     2.268
    16   1 H        0.924     0.067     2.123     2.279
    17   1 H        0.924     0.043     2.416     2.431
    18   1 H        0.924     0.035     2.511     2.478
    19   1 H        0.924     0.039     2.469     2.457
    20   1 H        0.924     0.030     2.590     2.517
    21   1 H        0.924     0.021     2.725     2.581
    22   1 H        0.924     0.016     2.800     2.617
    23   1 H        0.924     0.030     2.590     2.517
    24   1 H        0.924     0.031     2.576     2.510
    25   1 H        0.924     0.024     2.677     2.559
    26   1 H        0.925     0.044     2.399     2.422
    27   1 H        0.924     0.042     2.421     2.433

Wiberg/Mayer (AO) data.
largest (>0.10) Wiberg bond orders for each atom

     #   Z sym  total        # sym  WBO       # sym  WBO       # sym  WBO
 ---------------------------------------------------------------------------
     1   7 N    3.653 --     2 C    0.966    12 H    0.890    11 H    0.890
                            10 H    0.887
     2   6 C    3.927 --     3 C    1.011    14 H    0.966     1 N    0.966
                            13 H    0.965
     3   6 C    3.990 --     2 C    1.011     4 C    0.993    16 H    0.972
                            15 H    0.970
     4   6 C    3.995 --     9 C    0.998     5 C    0.996     3 C    0.993
                            17 H    0.966
     5   6 C    3.996 --     6 C    1.008     4 C    0.996    19 H    0.976
                            18 H    0.976
     6   6 C    3.997 --     7 C    1.009     5 C    1.008    21 H    0.978
                            20 H    0.977
     7   6 C    3.998 --     8 C    1.009     6 C    1.009    22 H    0.978
                            23 H    0.977
     8   6 C    3.997 --     7 C    1.009     9 C    1.008    25 H    0.978
                            24 H    0.977
     9   6 C    3.996 --     8 C    1.008     4 C    0.998    27 H    0.976
                            26 H    0.974
    10   1 H    0.900 --     1 N    0.887
    11   1 H    0.904 --     1 N    0.890
    12   1 H    0.905 --     1 N    0.890
    13   1 H    0.989 --     2 C    0.965
    14   1 H    0.989 --     2 C    0.966
    15   1 H    0.995 --     3 C    0.970
    16   1 H    0.996 --     3 C    0.972
    17   1 H    0.998 --     4 C    0.966
    18   1 H    0.999 --     5 C    0.976
    19   1 H    0.999 --     5 C    0.976
    20   1 H    0.999 --     6 C    0.977
    21   1 H    0.999 --     6 C    0.978
    22   1 H    0.999 --     7 C    0.978
    23   1 H    0.999 --     7 C    0.977
    24   1 H    0.999 --     8 C    0.977
    25   1 H    0.999 --     8 C    0.978
    26   1 H    0.998 --     9 C    0.974
    27   1 H    0.998 --     9 C    0.976
 ---------------------------------------------------------------------------

molecular dipole:
                 x           y           z       tot (Debye)
 q only:        1.591       0.486      -0.226
   full:        1.648       0.450      -0.280       4.399

           -------------------------------------------------
          | TOTAL ENERGY              -28.931913955945 Eh   |
          | GRADIENT NORM               0.000186222743 Eh/α |
          | HOMO-LUMO GAP               9.642614907804 eV   |
           -------------------------------------------------

 * finished run on 2023/01/24 at 15:53:55.460
