   * xtb version 6.5.1 (fef0646) compiled by 'conda@b96dff2e9fd6' on 2023-01-04
          program call               : xtb init.xyz --opt -c 0 -u 0 -P 16 --alpb water

   ID    Z sym.   atoms
    1    7 N      1
    2    6 C      2-9
    3   17 Cl     10
    4    1 H      11-26

      * Solvation model:               ALPB
        Solvent                        water
        Solvent mass                       1.8000E+01 g/mol
          :  Hamiltonian                  GFN2-xTB          :
 * total energy  :   -32.7851903 Eh     change       -0.1321681E-09 Eh
 * total energy  :   -32.7880711 Eh     change       -0.2880766E-02 Eh
 * total energy  :   -32.7887957 Eh     change       -0.7246479E-03 Eh
 * total energy  :   -32.7890342 Eh     change       -0.2384823E-03 Eh
 * total energy  :   -32.7892782 Eh     change       -0.2440364E-03 Eh
 * total energy  :   -32.7895923 Eh     change       -0.3140594E-03 Eh
 * total energy  :   -32.7901355 Eh     change       -0.5432415E-03 Eh
 * total energy  :   -32.7908540 Eh     change       -0.7184456E-03 Eh
 * total energy  :   -32.7917377 Eh     change       -0.8837241E-03 Eh
 * total energy  :   -32.7926667 Eh     change       -0.9290226E-03 Eh
 * total energy  :   -32.7958830 Eh     change       -0.5431104E-04 Eh
 * total energy  :   -32.7959322 Eh     change       -0.4919820E-04 Eh
 * total energy  :   -32.7959740 Eh     change       -0.4175695E-04 Eh
 * total energy  :   -32.7960176 Eh     change       -0.4359501E-04 Eh
 * total energy  :   -32.7960442 Eh     change       -0.2660389E-04 Eh
 * total energy  :   -32.7960813 Eh     change       -0.3713299E-04 Eh
 * total energy  :   -32.7960961 Eh     change       -0.1473867E-04 Eh
 * total energy  :   -32.7961095 Eh     change       -0.1348915E-04 Eh
 * total energy  :   -32.7961135 Eh     change       -0.3927190E-05 Eh
   *** GEOMETRY OPTIMIZATION CONVERGED AFTER 39 ITERATIONS ***

 final structure:
================
26
 xtb: 6.5.1 (fef0646)
N            2.80079221143004       -1.30269261191350       -1.61443933531375
C            2.36695652918221        0.04901219967491       -2.01972794311190
C            3.03118175848255        1.07623474377579       -1.10929759701823
C            4.54073085838898        0.99679675398359       -1.12598307996249
C            5.24897644732605        0.94550316054039       -2.24727901274001
C            6.74130211137644        0.82289554873614       -2.29518516823198
C            7.30654695961828        0.35928260047716       -0.95578446983706
C            6.69269769446911        1.18690597540537        0.16730995296662
C            5.18630747796487        0.94900950828383        0.22982777305554
Cl           2.33029456743176       -1.82027071997131        1.36792283153450
H            2.34417618088890       -2.03526407341651       -2.16018118088121
H            2.58512202380115       -1.46686448765788       -0.59752151303704
H            3.81789631389072       -1.37348404777017       -1.71033861970547
H            1.28547338181309        0.12038562642195       -1.91483953581560
H            2.64152890834379        0.21649057378743       -3.06088414653963
H            2.68595633846309        0.89840995866316       -0.08960123582462
H            2.71029489294666        2.07694689234230       -1.40205332423199
H            4.76287489874517        1.01559396120329       -3.21017251114566
H            7.17036371661407        1.79594888119138       -2.55702717639705
H            7.02767489145531        0.12586068558982       -3.08664905407367
H            8.39352707328777        0.46019214071547       -0.95149565899703
H            7.06730468235429       -0.69379037788714       -0.79403691023830
H            6.88554901943380        2.24526455068892       -0.02232526850636
H            7.14847156637991        0.93017259767465        1.12583658683383
H            4.72046925123633        1.69921783057414        0.87475103592761
H            4.97247024467848       -0.02422787111368        0.68681456129006

          :  Hamiltonian                  GFN2-xTB          :
         :: total energy             -32.796113472661 Eh    ::
         :: gradient norm              0.000514262749 Eh/a0 ::
         :: HOMO-LUMO gap              5.033074613806 eV    ::
         :: SCC energy               -33.223410465037 Eh    ::
         :: -> dispersion             -0.019999703750 Eh    ::
         :: -> Gsolv                  -0.069164176689 Eh    ::
         :: repulsion energy           0.427050783621 Eh    ::

    * Orbital Energies and Occupations

         #    Occupation            Energy/Eh            Energy/eV
      -------------------------------------------------------------
         1        2.0000           -1.0053982             -27.3583
       ...           ...                  ...                  ...
        18        2.0000           -0.4758075             -12.9474
        19        2.0000           -0.4722634             -12.8509
        20        2.0000           -0.4562899             -12.4163
        21        2.0000           -0.4542109             -12.3597
        22        2.0000           -0.4486739             -12.2090
        23        2.0000           -0.4375478             -11.9063
        24        2.0000           -0.4218283             -11.4785
        25        2.0000           -0.4119352             -11.2093
        26        2.0000           -0.4046225             -11.0103
        27        2.0000           -0.4014916             -10.9251
        28        2.0000           -0.3997109             -10.8767
        29        2.0000           -0.3992765             -10.8649
        30        2.0000           -0.3724156             -10.1339 (HOMO)
        31                         -0.1874535              -5.1009 (LUMO)
        32                         -0.0213682              -0.5815
        33                          0.0678784               1.8471
        34                          0.0808393               2.1998
        35                          0.0957416               2.6053
        36                          0.1018511               2.7715
        37                          0.1090433               2.9672
        38                          0.1146176               3.1189
        39                          0.1177925               3.2053
        40                          0.1181679               3.2155
        41                          0.1202521               3.2722
       ...                                ...                  ...
        61                          0.6485734              17.6486
      -------------------------------------------------------------
                  HL-Gap            0.1849621 Eh            5.0331 eV

     #   Z          covCN         q      C6AA      α(0)
     1   7 N        3.485    -0.163    24.513     7.353
     2   6 C        3.732    -0.026    21.137     6.562
     3   6 C        3.809    -0.088    22.179     6.704
     4   6 C        2.943     0.001    28.010     8.680
     5   6 C        2.897    -0.065    29.625     8.924
     6   6 C        3.809    -0.063    21.695     6.630
     7   6 C        3.807    -0.060    21.640     6.622
     8   6 C        3.806    -0.057    21.592     6.615
     9   6 C        3.811    -0.064    21.712     6.633
    10  17 Cl       0.045    -0.948   124.918    17.010
    11   1 H        0.860     0.304     0.701     1.312
    12   1 H        0.901     0.294     0.727     1.334
    13   1 H        0.859     0.282     0.771     1.375
    14   1 H        0.925     0.102     1.765     2.078
    15   1 H        0.925     0.105     1.737     2.061
    16   1 H        0.924     0.062     2.174     2.306
    17   1 H        0.924     0.075     2.027     2.226
    18   1 H        0.926     0.043     2.415     2.430
    19   1 H        0.924     0.040     2.448     2.447
    20   1 H        0.924     0.043     2.411     2.428
    21   1 H        0.924     0.024     2.678     2.559
    22   1 H        0.924     0.034     2.530     2.487
    23   1 H        0.924     0.032     2.562     2.503
    24   1 H        0.924     0.018     2.759     2.597
    25   1 H        0.924     0.032     2.559     2.502
    26   1 H        0.924     0.043     2.413     2.429

Wiberg/Mayer (AO) data.
largest (>0.10) Wiberg bond orders for each atom

     #   Z sym  total        # sym  WBO       # sym  WBO       # sym  WBO
 ---------------------------------------------------------------------------
     1   7 N    3.649 --     2 C    0.967    13 H    0.899    11 H    0.894
                            12 H    0.833
     2   6 C    3.930 --     3 C    1.004    14 H    0.968     1 N    0.967
                            15 H    0.965
     3   6 C    3.991 --     2 C    1.004     4 C    1.003    16 H    0.971
                            17 H    0.956
     4   6 C    3.987 --     5 C    1.880     9 C    1.012     3 C    1.003
     5   6 C    3.987 --     4 C    1.880     6 C    1.023    18 H    0.963
     6   6 C    3.998 --     5 C    1.023     7 C    1.007    20 H    0.968
                            19 H    0.958
     7   6 C    3.998 --     8 C    1.009     6 C    1.007    21 H    0.979
                            22 H    0.978
     8   6 C    3.998 --     7 C    1.009     9 C    1.006    24 H    0.979
                            23 H    0.978
     9   6 C    3.997 --     4 C    1.012     8 C    1.006    25 H    0.965
                            26 H    0.958
    10  17 Cl   0.101
    11   1 H    0.908 --     1 N    0.894
    12   1 H    0.913 --     1 N    0.833
    13   1 H    0.921 --     1 N    0.899
    14   1 H    0.989 --     2 C    0.968
    15   1 H    0.989 --     2 C    0.965
    16   1 H    0.996 --     3 C    0.971
    17   1 H    0.994 --     3 C    0.956
    18   1 H    0.998 --     5 C    0.963
    19   1 H    0.998 --     6 C    0.958
    20   1 H    0.998 --     6 C    0.968
    21   1 H    0.999 --     7 C    0.979
    22   1 H    0.999 --     7 C    0.978
    23   1 H    0.999 --     8 C    0.978
    24   1 H    0.999 --     8 C    0.979
    25   1 H    0.999 --     9 C    0.965
    26   1 H    0.998 --     9 C    0.958
 ---------------------------------------------------------------------------

molecular dipole:
                 x           y           z       tot (Debye)
 q only:        0.700       1.209      -5.382
   full:        0.700       0.936      -4.563      11.973

           -------------------------------------------------
          | TOTAL ENERGY              -32.796113472661 Eh   |
          | GRADIENT NORM               0.000514262749 Eh/α |
          | HOMO-LUMO GAP               5.033074613806 eV   |
           -------------------------------------------------

 * finished run on 2023/01/24 at 14:57:44.999
