   * xtb version 6.5.1 (fef0646) compiled by 'conda@b96dff2e9fd6' on 2023-01-04
          program call               : xtb init.xyz --opt -c 1 -u 0 -P 16 --alpb water

   ID    Z sym.   atoms
    1    7 N      1
    2    6 C      2-5
    3    1 H      6-13

      * Solvation model:               ALPB
        Solvent                        water
        Solvent mass                       1.8000E+01 g/mol
          :  Hamiltonian                  GFN2-xTB          :
 * total energy  :   -15.1377235 Eh     change       -0.1858762E-08 Eh
 * total energy  :   -15.1604099 Eh     change       -0.2268642E-01 Eh
 * total energy  :   -15.1615996 Eh     change       -0.1189612E-02 Eh
 * total energy  :   -15.1616697 Eh     change       -0.7015017E-04 Eh
 * total energy  :   -15.1616883 Eh     change       -0.1858314E-04 Eh
 * total energy  :   -15.1616637 Eh     change        0.2461284E-04 Eh
 * total energy  :   -15.1617070 Eh     change       -0.4328540E-04 Eh
 * total energy  :   -15.1617190 Eh     change       -0.1204792E-04 Eh
 * total energy  :   -15.1617256 Eh     change       -0.6580304E-05 Eh
 * total energy  :   -15.1617350 Eh     change       -0.9403179E-05 Eh
 * total energy  :   -15.1617375 Eh     change       -0.2479359E-05 Eh
   *** GEOMETRY OPTIMIZATION CONVERGED AFTER 11 ITERATIONS ***

 final structure:
================
13
 xtb: 6.5.1 (fef0646)
N            1.00383277974411       -0.05369514208709        0.04242191417673
C            2.48650947302607       -0.08462099207584        0.04951078911750
C            2.98184192931647       -0.96156427199205        1.19897619948017
C            2.52922541846185       -2.33218041960825        1.04299559414087
C            2.11589332857586       -3.44422142593764        0.88217760823156
H            0.64742918193913        0.47250926409855       -0.76299094928641
H            0.64783196074607        0.37684360377091        0.90448685061295
H            0.64943888762074       -1.01825010425771       -0.00283545357705
H            2.87267473319330        0.92742362957761        0.16513810530543
H            2.83800448447081       -0.49269478083070       -0.89829947576404
H            2.63175297748394       -0.57882820307678        2.15993049478719
H            4.07249339760118       -0.95553864437692        1.21688621594760
H            1.78232144782029       -4.43115251320414        0.75970210682750

          :  Hamiltonian                  GFN2-xTB          :
         :: total energy             -15.161737472423 Eh    ::
         :: gradient norm              0.000396258303 Eh/a0 ::
         :: HOMO-LUMO gap              6.822854634288 eV    ::
         :: SCC energy               -15.459368335335 Eh    ::
         :: -> dispersion             -0.005569315458 Eh    ::
         :: -> Gsolv                  -0.117387268037 Eh    ::
         :: repulsion energy           0.297620858084 Eh    ::

    * Orbital Energies and Occupations

         #    Occupation            Energy/Eh            Energy/eV
      -------------------------------------------------------------
         1        2.0000           -0.6950392             -18.9130
         2        2.0000           -0.6496877             -17.6789
         3        2.0000           -0.6247841             -17.0012
         4        2.0000           -0.6054819             -16.4760
         5        2.0000           -0.5908840             -16.0788
         6        2.0000           -0.5833577             -15.8740
         7        2.0000           -0.5564988             -15.1431
         8        2.0000           -0.5256900             -14.3048
         9        2.0000           -0.4984020             -13.5622
        10        2.0000           -0.4941245             -13.4458
        11        2.0000           -0.4783099             -13.0155
        12        2.0000           -0.4583360             -12.4720
        13        2.0000           -0.4161150             -11.3231
        14        2.0000           -0.4098213             -11.1518 (HOMO)
        15                         -0.1590860              -4.3290 (LUMO)
        16                         -0.1509440              -4.1074
        17                         -0.0470579              -1.2805
        18                          0.0506613               1.3786
        19                          0.0667080               1.8152
        20                          0.1002451               2.7278
        21                          0.1166801               3.1750
        22                          0.1416731               3.8551
        23                          0.1855308               5.0485
        24                          0.2053299               5.5873
        25                          0.2379761               6.4757
       ...                                ...                  ...
        28                          1.4261651              38.8079
      -------------------------------------------------------------
                  HL-Gap            0.2507353 Eh            6.8229 eV

     #   Z          covCN         q      C6AA      α(0)
     1   7 N        3.485    -0.156    24.362     7.331
     2   6 C        3.737    -0.034    21.257     6.579
     3   6 C        3.805    -0.071    21.851     6.655
     4   6 C        1.967    -0.034    31.968     9.131
     5   6 C        1.909    -0.128    34.700     9.513
     6   1 H        0.859     0.316     0.668     1.280
     7   1 H        0.859     0.310     0.683     1.295
     8   1 H        0.859     0.298     0.720     1.329
     9   1 H        0.925     0.115     1.654     2.011
    10   1 H        0.925     0.111     1.685     2.030
    11   1 H        0.924     0.096     1.826     2.113
    12   1 H        0.924     0.094     1.839     2.121
    13   1 H        0.928     0.082     1.961     2.190

Wiberg/Mayer (AO) data.
largest (>0.10) Wiberg bond orders for each atom

     #   Z sym  total        # sym  WBO       # sym  WBO       # sym  WBO
 ---------------------------------------------------------------------------
     1   7 N    3.656 --     2 C    0.967     8 H    0.892     7 H    0.889
                             6 H    0.887
     2   6 C    3.927 --     3 C    0.994     1 N    0.967    10 H    0.966
                             9 H    0.965
     3   6 C    3.989 --     4 C    1.052     2 C    0.994    11 H    0.947
                            12 H    0.944
     4   6 C    3.978 --     5 C    2.893     3 C    1.052
     5   6 C    3.973 --     4 C    2.893    13 H    0.970
     6   1 H    0.900 --     1 N    0.887
     7   1 H    0.904 --     1 N    0.889
     8   1 H    0.911 --     1 N    0.892
     9   1 H    0.986 --     2 C    0.965
    10   1 H    0.988 --     2 C    0.966
    11   1 H    0.991 --     3 C    0.947
    12   1 H    0.991 --     3 C    0.944
    13   1 H    0.993 --     5 C    0.970
 ---------------------------------------------------------------------------

molecular dipole:
                 x           y           z       tot (Debye)
 q only:        2.303       0.201       0.188
   full:        2.189       0.099       0.194       5.591

           -------------------------------------------------
          | TOTAL ENERGY              -15.161737472423 Eh   |
          | GRADIENT NORM               0.000396258303 Eh/α |
          | HOMO-LUMO GAP               6.822854634288 eV   |
           -------------------------------------------------

 * finished run on 2023/01/24 at 15:22:18.343
