   * xtb version 6.5.1 (fef0646) compiled by 'conda@b96dff2e9fd6' on 2023-01-04
          program call               : xtb init.xyz --opt -c 1 -u 0 -P 16

   ID    Z sym.   atoms
    1    7 N      1
    2    6 C      2-5
    3    8 O      6, 7
    4    1 H      8-17

          :  Hamiltonian                  GFN2-xTB          :
 * total energy  :   -24.2718186 Eh     change       -0.8432721E-10 Eh
 * total energy  :   -24.2745179 Eh     change       -0.2699253E-02 Eh
 * total energy  :   -24.2749419 Eh     change       -0.4239764E-03 Eh
 * total energy  :   -24.2750688 Eh     change       -0.1269735E-03 Eh
 * total energy  :   -24.2751167 Eh     change       -0.4788804E-04 Eh
 * total energy  :   -24.2751460 Eh     change       -0.2929819E-04 Eh
 * total energy  :   -24.2751538 Eh     change       -0.7814865E-05 Eh
 * total energy  :   -24.2751559 Eh     change       -0.2083045E-05 Eh
   *** GEOMETRY OPTIMIZATION CONVERGED AFTER 8 ITERATIONS ***

 final structure:
================
17
 xtb: 6.5.1 (fef0646)
N            0.97332345235083        0.06567561563462       -0.07890469226291
C            2.46882687771324        0.02769920309064       -0.05778934211683
C            3.01517429198958        1.24701936310870       -0.78391475873152
C            4.54299105039334        1.28485883555480       -0.80712590600878
C            4.98415542623793        2.54935032442895       -1.56023143532034
O            6.29482480155149        2.72688173066635       -1.66982751130808
O            4.19306533524736        3.31666756791715       -2.01990577946679
H            0.56321961040894       -0.74429831855263        0.40320884031049
H            0.64054270505286        0.07751562026033       -1.05309292846447
H            0.64192047497475        0.92759568826762        0.37627899991803
H            2.79885350523781       -0.89262292077168       -0.54248908418129
H            2.80032682737143        0.01444782326125        0.98181593583616
H            2.66631294572268        2.16398282863516       -0.30507173694625
H            2.66545397463682        1.26355910534719       -1.81796978128352
H            4.94772472618585        0.40798932407976       -1.31703857348599
H            4.94823258768052        1.31640518338518        0.20646168358498
H            6.84063140724455        2.04209302568661       -1.26089393007289

          :  Hamiltonian                  GFN2-xTB          :
         :: total energy             -24.275155929840 Eh    ::
         :: gradient norm              0.000808325986 Eh/a0 ::
         :: HOMO-LUMO gap              5.187797222593 eV    ::
         :: SCC energy               -24.543571065438 Eh    ::
         :: -> dispersion             -0.008188510104 Eh    ::
         :: repulsion energy           0.268419809159 Eh    ::

    * Orbital Energies and Occupations

         #    Occupation            Energy/Eh            Energy/eV
      -------------------------------------------------------------
         1        2.0000           -0.9054989             -24.6399
       ...           ...                  ...                  ...
         9        2.0000           -0.7561694             -20.5764
        10        2.0000           -0.7396699             -20.1274
        11        2.0000           -0.7073826             -19.2489
        12        2.0000           -0.7019796             -19.1018
        13        2.0000           -0.6916124             -18.8197
        14        2.0000           -0.6778645             -18.4456
        15        2.0000           -0.6560080             -17.8509
        16        2.0000           -0.6457412             -17.5715
        17        2.0000           -0.6272752             -17.0690
        18        2.0000           -0.6160440             -16.7634
        19        2.0000           -0.6027666             -16.4021
        20        2.0000           -0.5857577             -15.9393
        21        2.0000           -0.5356862             -14.5768 (HOMO)
        22                         -0.3450382              -9.3890 (LUMO)
        23                         -0.2751771              -7.4880
        24                         -0.1707373              -4.6460
        25                         -0.1176202              -3.2006
        26                         -0.1128072              -3.0696
        27                         -0.0811778              -2.2090
        28                         -0.0651394              -1.7725
        29                         -0.0315904              -0.8596
        30                         -0.0213490              -0.5809
        31                         -0.0161119              -0.4384
        32                          0.0038230               0.1040
       ...                                ...                  ...
        38                          0.5394275              14.6786
      -------------------------------------------------------------
                  HL-Gap            0.1906480 Eh            5.1878 eV

     #   Z          covCN         q      C6AA      α(0)
     1   7 N        3.483    -0.128    23.764     7.240
     2   6 C        3.730    -0.034    21.282     6.585
     3   6 C        3.806    -0.082    22.057     6.686
     4   6 C        3.800    -0.111    22.621     6.772
     5   6 C        2.689     0.361    20.869     7.476
     6   8 O        1.660    -0.341    19.732     5.997
     7   8 O        0.857    -0.355    20.796     6.114
     8   1 H        0.859     0.272     0.802     1.403
     9   1 H        0.859     0.277     0.788     1.390
    10   1 H        0.859     0.276     0.788     1.390
    11   1 H        0.924     0.109     1.705     2.042
    12   1 H        0.924     0.109     1.705     2.042
    13   1 H        0.924     0.084     1.941     2.179
    14   1 H        0.924     0.084     1.940     2.178
    15   1 H        0.924     0.072     2.061     2.245
    16   1 H        0.924     0.072     2.062     2.246
    17   1 H        0.805     0.334     0.628     1.245

Wiberg/Mayer (AO) data.
largest (>0.10) Wiberg bond orders for each atom

     #   Z sym  total        # sym  WBO       # sym  WBO       # sym  WBO
 ---------------------------------------------------------------------------
     1   7 N    3.675 --     2 C    0.927     8 H    0.911    10 H    0.907
                             9 H    0.907
     2   6 C    3.889 --     3 C    1.009    12 H    0.966    11 H    0.966
                             1 N    0.927
     3   6 C    3.979 --     2 C    1.009     4 C    1.004    13 H    0.968
                            14 H    0.968
     4   6 C    3.993 --     3 C    1.004    16 H    0.961    15 H    0.961
                             5 C    0.946
     5   6 C    3.927 --     7 O    1.797     6 O    1.157     4 C    0.946
     6   8 O    2.243 --     5 C    1.157    17 H    0.866     7 O    0.172
     7   8 O    2.086 --     5 C    1.797     6 O    0.172
     8   1 H    0.925 --     1 N    0.911
     9   1 H    0.924 --     1 N    0.907
    10   1 H    0.924 --     1 N    0.907
    11   1 H    0.988 --     2 C    0.966
    12   1 H    0.988 --     2 C    0.966
    13   1 H    0.993 --     3 C    0.968
    14   1 H    0.993 --     3 C    0.968
    15   1 H    0.995 --     4 C    0.961
    16   1 H    0.995 --     4 C    0.961
    17   1 H    0.889 --     6 O    0.866
 ---------------------------------------------------------------------------

molecular dipole:
                 x           y           z       tot (Debye)
 q only:        3.347      -0.691       0.338
   full:        3.258      -1.075       0.569       8.839

           -------------------------------------------------
          | TOTAL ENERGY              -24.275155929840 Eh   |
          | GRADIENT NORM               0.000808325986 Eh/α |
          | HOMO-LUMO GAP               5.187797222593 eV   |
           -------------------------------------------------

 * finished run on 2023/01/23 at 14:12:21.705
