   * xtb version 6.5.1 (fef0646) compiled by 'conda@b96dff2e9fd6' on 2023-01-04
          program call               : xtb init.xyz --opt -c 1 -u 0 -P 16 --alpb water

   ID    Z sym.   atoms
    1    7 N      1
    2    6 C      2-7, 9-11
    3    8 O      8
    4    1 H      12-25

      * Solvation model:               ALPB
        Solvent                        water
        Solvent mass                       1.8000E+01 g/mol
          :  Hamiltonian                  GFN2-xTB          :
 * total energy  :   -33.0633159 Eh     change       -0.1297948E-09 Eh
 * total energy  :   -33.0655855 Eh     change       -0.2269591E-02 Eh
 * total energy  :   -33.0659529 Eh     change       -0.3673548E-03 Eh
 * total energy  :   -33.0660305 Eh     change       -0.7764431E-04 Eh
 * total energy  :   -33.0660968 Eh     change       -0.6630038E-04 Eh
 * total energy  :   -33.0661244 Eh     change       -0.2753177E-04 Eh
 * total energy  :   -33.0661717 Eh     change       -0.4734801E-04 Eh
 * total energy  :   -33.0662068 Eh     change       -0.3512829E-04 Eh
 * total energy  :   -33.0662275 Eh     change       -0.2061531E-04 Eh
 * total energy  :   -33.0662543 Eh     change       -0.2684705E-04 Eh
 * total energy  :   -33.0666671 Eh     change       -0.9784236E-05 Eh
 * total energy  :   -33.0666765 Eh     change       -0.9396916E-05 Eh
 * total energy  :   -33.0666849 Eh     change       -0.8442623E-05 Eh
 * total energy  :   -33.0666924 Eh     change       -0.7448093E-05 Eh
 * total energy  :   -33.0666990 Eh     change       -0.6642968E-05 Eh
 * total energy  :   -33.0667052 Eh     change       -0.6115305E-05 Eh
 * total energy  :   -33.0667109 Eh     change       -0.5699667E-05 Eh
 * total energy  :   -33.0667162 Eh     change       -0.5325216E-05 Eh
 * total energy  :   -33.0667211 Eh     change       -0.4921749E-05 Eh
   *** GEOMETRY OPTIMIZATION CONVERGED AFTER 41 ITERATIONS ***

 final structure:
================
25
 xtb: 6.5.1 (fef0646)
N            2.83653359619966       -1.35940934685602       -1.86935474929681
C            2.44535271747065       -0.47004840735525       -0.74919535532809
C            2.95249732672245       -1.04550731175685        0.57272722884448
C            4.45847919882371       -1.07059237877881        0.61803537731575
C            5.17458436255802        0.09553465331251        0.84892835245898
C            6.55842822668366        0.09825616665676        0.88035737697166
C            7.25644880722958       -1.08798297536328        0.68035370518566
O            8.61756433576399       -1.21215930438612        0.69750643758504
C            9.39919726460552       -0.06641238714587        0.96214526567061
C            6.54533079173636       -2.26465328438198        0.44330164644527
C            5.16619491702399       -2.25115580286415        0.41048109350191
H            2.58740539111100       -0.94646870886788       -2.77476101163091
H            2.37139348022537       -2.27032658174123       -1.78018574638370
H            3.85231855196401       -1.51422139412493       -1.83733439617316
H            1.36055283107593       -0.37743794372453       -0.72353671450695
H            2.88208592538270        0.51535304393862       -0.90891435236022
H            2.56302738860296       -2.05259615530075        0.71866607120479
H            2.57898073644300       -0.42392281430787        1.38561797868709
H            4.65075619606107        1.02375041475782        1.02141567197235
H            7.08095090894738        1.02184662673056        1.07098244802687
H           10.43169033915598       -0.40874599831980        0.94561285199096
H            9.17110833902493        0.35143541705261        1.94673655231796
H            9.25694236737957        0.69756008475544        0.19272843418372
H            7.10348355820667       -3.17592908519730        0.29746599898713
H            4.64205244160197       -3.18105652673144        0.24921983432939

          :  Hamiltonian                  GFN2-xTB          :
         :: total energy             -33.066721102438 Eh    ::
         :: gradient norm              0.000156176615 Eh/a0 ::
         :: HOMO-LUMO gap              4.170338439193 eV    ::
         :: SCC energy               -33.566693529607 Eh    ::
         :: -> dispersion             -0.018629908681 Eh    ::
         :: -> Gsolv                  -0.117807168903 Eh    ::
         :: repulsion energy           0.499920172571 Eh    ::

    * Orbital Energies and Occupations

         #    Occupation            Energy/Eh            Energy/eV
      -------------------------------------------------------------
         1        2.0000           -0.7184726             -19.5506
       ...           ...                  ...                  ...
        18        2.0000           -0.4970827             -13.5263
        19        2.0000           -0.4943867             -13.4529
        20        2.0000           -0.4911999             -13.3662
        21        2.0000           -0.4830581             -13.1447
        22        2.0000           -0.4796071             -13.0508
        23        2.0000           -0.4749911             -12.9252
        24        2.0000           -0.4605823             -12.5331
        25        2.0000           -0.4540465             -12.3552
        26        2.0000           -0.4447544             -12.1024
        27        2.0000           -0.4364103             -11.8753
        28        2.0000           -0.4203942             -11.4395
        29        2.0000           -0.4084023             -11.1132
        30        2.0000           -0.3802193             -10.3463 (HOMO)
        31                         -0.2269622              -6.1760 (LUMO)
        32                         -0.2185086              -5.9459
        33                         -0.0954511              -2.5974
        34                         -0.0448238              -1.2197
        35                          0.0260532               0.7089
        36                          0.0602305               1.6390
        37                          0.0822167               2.2372
        38                          0.1015660               2.7638
        39                          0.1143327               3.1112
        40                          0.1151846               3.1343
        41                          0.1330209               3.6197
       ...                                ...                  ...
        58                          0.6591817              17.9372
      -------------------------------------------------------------
                  HL-Gap            0.1532571 Eh            4.1703 eV

     #   Z          covCN         q      C6AA      α(0)
     1   7 N        3.485    -0.155    24.346     7.328
     2   6 C        3.733    -0.038    21.336     6.593
     3   6 C        3.808    -0.095    22.307     6.723
     4   6 C        2.968    -0.002    28.067     8.690
     5   6 C        2.926    -0.047    29.168     8.857
     6   6 C        2.916    -0.070    29.748     8.944
     7   6 C        2.864     0.138    24.992     8.194
     8   8 O        1.705    -0.313    19.228     5.920
     9   6 C        3.642     0.028    20.450     6.502
    10   6 C        2.919    -0.063    29.556     8.915
    11   6 C        2.924    -0.053    29.321     8.880
    12   1 H        0.859     0.317     0.665     1.277
    13   1 H        0.859     0.310     0.685     1.296
    14   1 H        0.859     0.293     0.733     1.341
    15   1 H        0.925     0.117     1.637     2.001
    16   1 H        0.925     0.109     1.703     2.041
    17   1 H        0.925     0.081     1.965     2.192
    18   1 H        0.925     0.082     1.964     2.191
    19   1 H        0.926     0.053     2.282     2.362
    20   1 H        0.926     0.035     2.522     2.483
    21   1 H        0.925     0.067     2.115     2.274
    22   1 H        0.924     0.047     2.355     2.400
    23   1 H        0.924     0.052     2.298     2.370
    24   1 H        0.926     0.042     2.420     2.433
    25   1 H        0.926     0.064     2.148     2.292

Wiberg/Mayer (AO) data.
largest (>0.10) Wiberg bond orders for each atom

     #   Z sym  total        # sym  WBO       # sym  WBO       # sym  WBO
 ---------------------------------------------------------------------------
     1   7 N    3.657 --     2 C    0.965    14 H    0.893    13 H    0.889
                            12 H    0.886
     2   6 C    3.925 --     3 C    0.999    16 H    0.966     1 N    0.965
                            15 H    0.964
     3   6 C    3.988 --     4 C    1.009     2 C    0.999    17 H    0.968
                            18 H    0.960
     4   6 C    3.987 --     5 C    1.414    11 C    1.394     3 C    1.009
     5   6 C    3.989 --     6 C    1.444     4 C    1.414    19 H    0.968
                            10 C    0.110
     6   6 C    3.988 --     5 C    1.444     7 C    1.374    20 H    0.966
                            11 C    0.101
     7   6 C    3.922 --     6 C    1.374    10 C    1.352     8 O    1.044
     8   8 O    2.199 --     7 C    1.044     9 C    0.978
     9   6 C    3.939 --    21 H    0.979     8 O    0.978    22 H    0.977
                            23 H    0.976
    10   6 C    3.986 --    11 C    1.465     7 C    1.352    24 H    0.969
                             5 C    0.110
    11   6 C    3.986 --    10 C    1.465     4 C    1.394    25 H    0.965
                             6 C    0.101
    12   1 H    0.899 --     1 N    0.886
    13   1 H    0.904 --     1 N    0.889
    14   1 H    0.914 --     1 N    0.893
    15   1 H    0.986 --     2 C    0.964
    16   1 H    0.988 --     2 C    0.966
    17   1 H    0.993 --     3 C    0.968
    18   1 H    0.993 --     3 C    0.960
    19   1 H    0.997 --     5 C    0.968
    20   1 H    0.999 --     6 C    0.966
    21   1 H    0.995 --     9 C    0.979
    22   1 H    0.998 --     9 C    0.977
    23   1 H    0.997 --     9 C    0.976
    24   1 H    0.998 --    10 C    0.969
    25   1 H    0.995 --    11 C    0.965
 ---------------------------------------------------------------------------

molecular dipole:
                 x           y           z       tot (Debye)
 q only:        4.986      -1.990      -3.182
   full:        5.345      -1.904      -3.144      16.488

           -------------------------------------------------
          | TOTAL ENERGY              -33.066721102438 Eh   |
          | GRADIENT NORM               0.000156176615 Eh/α |
          | HOMO-LUMO GAP               4.170338439193 eV   |
           -------------------------------------------------

 * finished run on 2023/01/24 at 14:57:42.541
