   * xtb version 6.5.1 (fef0646) compiled by 'conda@b96dff2e9fd6' on 2023-01-04
          program call               : xtb init.xyz --opt -c 1 -u 0 -P 16 --alpb water

   ID    Z sym.   atoms
    1    7 N      1
    2    6 C      2-5
    3    8 O      6
    4    1 H      7-18

      * Solvation model:               ALPB
        Solvent                        water
        Solvent mass                       1.8000E+01 g/mol
          :  Hamiltonian                  GFN2-xTB          :
 * total energy  :   -21.3411324 Eh     change       -0.2333422E-10 Eh
 * total energy  :   -21.3430684 Eh     change       -0.1936024E-02 Eh
 * total energy  :   -21.3434179 Eh     change       -0.3494551E-03 Eh
 * total energy  :   -21.3435280 Eh     change       -0.1101061E-03 Eh
 * total energy  :   -21.3436110 Eh     change       -0.8306361E-04 Eh
 * total energy  :   -21.3436681 Eh     change       -0.5704812E-04 Eh
 * total energy  :   -21.3437112 Eh     change       -0.4309169E-04 Eh
 * total energy  :   -21.3437223 Eh     change       -0.1114677E-04 Eh
 * total energy  :   -21.3437247 Eh     change       -0.2379542E-05 Eh
 * total energy  :   -21.3437296 Eh     change       -0.4912787E-05 Eh
   *** GEOMETRY OPTIMIZATION CONVERGED AFTER 10 ITERATIONS ***

 final structure:
================
18
 xtb: 6.5.1 (fef0646)
N            0.94970242049819       -0.08544647335818       -0.04571844698070
C            2.43284630750343       -0.08859857863556       -0.04858168847161
C            2.96212486788971        0.01841841295075       -1.47337844389197
C            4.49017911684903        0.00307656216154       -1.50137550584900
C            5.00968499330200        0.01699442775876       -2.94130223435595
O            4.60965311041851       -1.12313055273236       -3.67622822398287
H            0.58485888533324       -0.13637890289484        0.91220627245611
H            0.59404576373972       -0.88835533998815       -0.57824742110904
H            0.59747786838741        0.77204768810308       -0.48784666075621
H            2.78894850147087       -1.01057480351714        0.41085622251843
H            2.79498323854164        0.75293266643878        0.54195380888128
H            2.62128255246714        0.94473976938731       -1.93764646175372
H            2.60679767662956       -0.81513918366676       -2.08129937068638
H            4.86520354286250       -0.89073643037481       -0.99876408379761
H            4.89300928534537        0.87469711601714       -0.98529163839316
H            6.10259246539974        0.11269806942131       -2.94710392670097
H            4.59308370122327        0.86765748932947       -3.48675400685062
H            5.05888570213867       -1.90212193640035       -3.32303819027603

          :  Hamiltonian                  GFN2-xTB          :
         :: total energy             -21.343729619630 Eh    ::
         :: gradient norm              0.000933494885 Eh/a0 ::
         :: HOMO-LUMO gap              9.803711420595 eV    ::
         :: SCC energy               -21.598840886002 Eh    ::
         :: -> dispersion             -0.008178278879 Eh    ::
         :: -> Gsolv                  -0.125759894310 Eh    ::
         :: repulsion energy           0.255098481944 Eh    ::

    * Orbital Energies and Occupations

         #    Occupation            Energy/Eh            Energy/eV
      -------------------------------------------------------------
         1        2.0000           -0.6925223             -18.8445
       ...           ...                  ...                  ...
         7        2.0000           -0.5899375             -16.0530
         8        2.0000           -0.5741437             -15.6232
         9        2.0000           -0.5511630             -14.9979
        10        2.0000           -0.5456383             -14.8476
        11        2.0000           -0.5326216             -14.4934
        12        2.0000           -0.5115587             -13.9202
        13        2.0000           -0.5061513             -13.7731
        14        2.0000           -0.4778225             -13.0022
        15        2.0000           -0.4677800             -12.7289
        16        2.0000           -0.4651329             -12.6569
        17        2.0000           -0.4375921             -11.9075
        18        2.0000           -0.4341024             -11.8125
        19        2.0000           -0.4118611             -11.2073 (HOMO)
        20                         -0.0515813              -1.4036 (LUMO)
        21                          0.0472650               1.2861
        22                          0.0560996               1.5265
        23                          0.0743331               2.0227
        24                          0.0987876               2.6881
        25                          0.1161968               3.1619
        26                          0.1347864               3.6677
        27                          0.1417732               3.8578
        28                          0.1471230               4.0034
        29                          0.1641213               4.4660
        30                          0.1884514               5.1280
       ...                                ...                  ...
        36                          0.3038731               8.2688
      -------------------------------------------------------------
                  HL-Gap            0.3602798 Eh            9.8037 eV

     #   Z          covCN         q      C6AA      α(0)
     1   7 N        3.485    -0.162    24.483     7.349
     2   6 C        3.732    -0.038    21.354     6.596
     3   6 C        3.804    -0.085    22.114     6.695
     4   6 C        3.801    -0.082    22.070     6.689
     5   6 C        3.675     0.075    19.546     6.335
     6   8 O        1.654    -0.518    23.293     6.515
     7   1 H        0.859     0.317     0.666     1.278
     8   1 H        0.859     0.309     0.687     1.299
     9   1 H        0.859     0.308     0.689     1.300
    10   1 H        0.925     0.108     1.712     2.046
    11   1 H        0.925     0.108     1.713     2.047
    12   1 H        0.924     0.067     2.123     2.278
    13   1 H        0.924     0.075     2.027     2.227
    14   1 H        0.924     0.053     2.283     2.363
    15   1 H        0.925     0.051     2.311     2.377
    16   1 H        0.924     0.016     2.800     2.617
    17   1 H        0.924     0.047     2.357     2.401
    18   1 H        0.805     0.352     0.584     1.201

Wiberg/Mayer (AO) data.
largest (>0.10) Wiberg bond orders for each atom

     #   Z sym  total        # sym  WBO       # sym  WBO       # sym  WBO
 ---------------------------------------------------------------------------
     1   7 N    3.653 --     2 C    0.967     9 H    0.890     8 H    0.890
                             7 H    0.887
     2   6 C    3.927 --     3 C    1.011     1 N    0.967    11 H    0.966
                            10 H    0.966
     3   6 C    3.989 --     2 C    1.011     4 C    1.006    12 H    0.972
                            13 H    0.970
     4   6 C    3.995 --     3 C    1.006     5 C    0.997    15 H    0.975
                            14 H    0.974
     5   6 C    3.950 --     4 C    0.997     6 O    0.993    17 H    0.973
                            16 H    0.972
     6   8 O    1.914 --     5 C    0.993    18 H    0.863
     7   1 H    0.899 --     1 N    0.887
     8   1 H    0.905 --     1 N    0.890
     9   1 H    0.905 --     1 N    0.890
    10   1 H    0.988 --     2 C    0.966
    11   1 H    0.988 --     2 C    0.966
    12   1 H    0.996 --     3 C    0.972
    13   1 H    0.994 --     3 C    0.970
    14   1 H    0.997 --     4 C    0.974
    15   1 H    0.997 --     4 C    0.975
    16   1 H    0.999 --     5 C    0.972
    17   1 H    0.998 --     5 C    0.973
    18   1 H    0.876 --     6 O    0.863
 ---------------------------------------------------------------------------

molecular dipole:
                 x           y           z       tot (Debye)
 q only:        2.351      -0.257       0.449
   full:        2.433      -0.289       0.517       6.366

           -------------------------------------------------
          | TOTAL ENERGY              -21.343729619630 Eh   |
          | GRADIENT NORM               0.000933494885 Eh/α |
          | HOMO-LUMO GAP               9.803711420595 eV   |
           -------------------------------------------------

 * finished run on 2023/01/24 at 16:46:02.126
