   * xtb version 6.5.1 (fef0646) compiled by 'conda@b96dff2e9fd6' on 2023-01-04
          program call               : xtb init.xyz --opt -c 1 -u 0 -P 16 --input xtb.inp

   ID    Z sym.   atoms
    1    7 N      1
    2    6 C      2-5
    3    8 O      6
    4    1 H      7-18

          :  Hamiltonian                  GFN2-xTB          :
 * total energy  :   -21.2240147 Eh     change       -0.4685674E-10 Eh
 * total energy  :   -21.2257801 Eh     change       -0.1765397E-02 Eh
 * total energy  :   -21.2260791 Eh     change       -0.2989973E-03 Eh
 * total energy  :   -21.2261259 Eh     change       -0.4681636E-04 Eh
 * total energy  :   -21.2261502 Eh     change       -0.2427357E-04 Eh
 * total energy  :   -21.2261610 Eh     change       -0.1083846E-04 Eh
 * total energy  :   -21.2261850 Eh     change       -0.2395109E-04 Eh
 * total energy  :   -21.2261978 Eh     change       -0.1276084E-04 Eh
 * total energy  :   -21.2262077 Eh     change       -0.9924384E-05 Eh
 * total energy  :   -21.2262141 Eh     change       -0.6447273E-05 Eh
 * total energy  :   -21.2262170 Eh     change       -0.2853299E-05 Eh
   *** GEOMETRY OPTIMIZATION CONVERGED AFTER 11 ITERATIONS ***

 final structure:
================
18
 xtb: 6.5.1 (fef0646)
N            0.89097622799546       -0.06085805685159        0.07344821280942
C            2.38868411497067       -0.03061392863656        0.10276468973339
C            2.93367803123879       -0.04108163184316       -1.31584527729052
C            4.46388705607483       -0.06506577680884       -1.34466213589803
C            4.93424425235925       -0.30188009949588       -2.78853252369204
O            4.43965357641128       -1.51713335048635       -3.29412181104000
H            0.49052138712608       -0.05063940922757        1.01990804813568
H            0.57426648346366       -0.90961147292207       -0.41516202752354
H            0.53898458998891        0.75409690229737       -0.44686041032276
H            2.73957385757649       -0.90340491478575        0.65514647776067
H            2.70753483974805        0.86879969062944        0.63146792683382
H            2.58952529467358        0.84135991669218       -1.85812123423636
H            2.58778758277301       -0.92844243171323       -1.85102037749446
H            4.83183999865941       -0.87381259815007       -0.71042633191433
H            4.87501798331860        0.87452930057838       -0.97893247595461
H            6.02622550258173       -0.25911289267148       -2.83506735859698
H            4.53150290528232        0.48011287652911       -3.43744353110611
H            5.01008631575786       -2.24241212313400       -3.01897986020327

          :  Hamiltonian                  GFN2-xTB          :
         :: total energy             -21.226216976506 Eh    ::
         :: gradient norm              0.000294202831 Eh/a0 ::
         :: HOMO-LUMO gap              7.017566893216 eV    ::
         :: SCC energy               -21.480278375527 Eh    ::
         :: -> dispersion             -0.008139027891 Eh    ::
         :: repulsion energy           0.254046794778 Eh    ::

    * Orbital Energies and Occupations

         #    Occupation            Energy/Eh            Energy/eV
      -------------------------------------------------------------
         1        2.0000           -0.8975461             -24.4235
       ...           ...                  ...                  ...
         7        2.0000           -0.7446539             -20.2631
         8        2.0000           -0.7277348             -19.8027
         9        2.0000           -0.7091865             -19.2979
        10        2.0000           -0.6901294             -18.7794
        11        2.0000           -0.6735870             -18.3292
        12        2.0000           -0.6576388             -17.8953
        13        2.0000           -0.6481503             -17.6371
        14        2.0000           -0.6209536             -16.8970
        15        2.0000           -0.6139901             -16.7075
        16        2.0000           -0.6106978             -16.6179
        17        2.0000           -0.5772778             -15.7085
        18        2.0000           -0.5541194             -15.0784
        19        2.0000           -0.5252834             -14.2937 (HOMO)
        20                         -0.2673926              -7.2761 (LUMO)
        21                         -0.1637169              -4.4550
        22                         -0.1056608              -2.8752
        23                         -0.1040023              -2.8300
        24                         -0.0634637              -1.7269
        25                         -0.0551745              -1.5014
        26                         -0.0266610              -0.7255
        27                         -0.0144155              -0.3923
        28                         -0.0038311              -0.1043
        29                          0.0165060               0.4492
        30                          0.0299158               0.8140
       ...                                ...                  ...
        36                          0.1695069               4.6125
      -------------------------------------------------------------
                  HL-Gap            0.2578908 Eh            7.0176 eV

     #   Z          covCN         q      C6AA      α(0)
     1   7 N        3.483    -0.128    23.767     7.241
     2   6 C        3.731    -0.034    21.273     6.584
     3   6 C        3.805    -0.084    22.104     6.693
     4   6 C        3.800    -0.077    21.972     6.674
     5   6 C        3.677     0.072    19.595     6.342
     6   8 O        1.656    -0.437    21.576     6.271
     7   1 H        0.859     0.270     0.811     1.411
     8   1 H        0.859     0.274     0.795     1.397
     9   1 H        0.859     0.273     0.799     1.400
    10   1 H        0.924     0.106     1.728     2.056
    11   1 H        0.924     0.106     1.731     2.058
    12   1 H        0.924     0.065     2.141     2.288
    13   1 H        0.924     0.084     1.938     2.177
    14   1 H        0.924     0.053     2.277     2.360
    15   1 H        0.925     0.054     2.265     2.353
    16   1 H        0.924     0.043     2.413     2.429
    17   1 H        0.924     0.060     2.198     2.318
    18   1 H        0.805     0.299     0.725     1.338

Wiberg/Mayer (AO) data.
largest (>0.10) Wiberg bond orders for each atom

     #   Z sym  total        # sym  WBO       # sym  WBO       # sym  WBO
 ---------------------------------------------------------------------------
     1   7 N    3.675 --     2 C    0.921     7 H    0.913     9 H    0.909
                             8 H    0.909
     2   6 C    3.885 --     3 C    1.008    11 H    0.967    10 H    0.967
                             1 N    0.921
     3   6 C    3.978 --     2 C    1.008     4 C    0.998    12 H    0.972
                            13 H    0.966
     4   6 C    3.991 --     3 C    0.998     5 C    0.990    15 H    0.977
                            14 H    0.975
     5   6 C    3.957 --     6 O    1.008     4 C    0.990    16 H    0.972
                            17 H    0.970
     6   8 O    1.969 --     5 C    1.008    18 H    0.898
     7   1 H    0.927 --     1 N    0.913
     8   1 H    0.925 --     1 N    0.909
     9   1 H    0.925 --     1 N    0.909
    10   1 H    0.989 --     2 C    0.967
    11   1 H    0.989 --     2 C    0.967
    12   1 H    0.996 --     3 C    0.972
    13   1 H    0.993 --     3 C    0.966
    14   1 H    0.997 --     4 C    0.975
    15   1 H    0.997 --     4 C    0.977
    16   1 H    0.998 --     5 C    0.972
    17   1 H    0.996 --     5 C    0.970
    18   1 H    0.911 --     6 O    0.898
 ---------------------------------------------------------------------------

molecular dipole:
                 x           y           z       tot (Debye)
 q only:        2.987      -0.146       0.036
   full:        2.895      -0.177       0.244       7.399

           -------------------------------------------------
          | TOTAL ENERGY              -21.226216976506 Eh   |
          | GRADIENT NORM               0.000294202831 Eh/α |
          | HOMO-LUMO GAP               7.017566893216 eV   |
           -------------------------------------------------

 * finished run on 2023/01/23 at 20:53:13.928
