   * xtb version 6.5.1 (fef0646) compiled by 'conda@b96dff2e9fd6' on 2023-01-04
          program call               : xtb init.xyz --opt -c 0 -u 0 -P 16

   ID    Z sym.   atoms
    1    7 N      1, 10, 11
    2    6 C      2-9, 12-17
    3   17 Cl     18
    4    1 H      19-34

          :  Hamiltonian                  GFN2-xTB          :
 * total energy  :   -51.3455293 Eh     change       -0.1309239E-08 Eh
 * total energy  :   -51.3553930 Eh     change       -0.9863684E-02 Eh
 * total energy  :   -51.3629639 Eh     change       -0.7570843E-02 Eh
 * total energy  :   -51.3682564 Eh     change       -0.5292549E-02 Eh
 * total energy  :   -51.3728837 Eh     change       -0.4627288E-02 Eh
 * total energy  :   -51.3750733 Eh     change       -0.2189634E-02 Eh
 * total energy  :   -51.3768888 Eh     change       -0.1815501E-02 Eh
 * total energy  :   -51.3777278 Eh     change       -0.8390104E-03 Eh
 * total energy  :   -51.3783783 Eh     change       -0.6504120E-03 Eh
 * total energy  :   -51.3785256 Eh     change       -0.1473484E-03 Eh
 * total energy  :   -51.3811656 Eh     change        0.4921245E-05 Eh
 * total energy  :   -51.3811797 Eh     change       -0.1408753E-04 Eh
 * total energy  :   -51.3811854 Eh     change       -0.5729516E-05 Eh
 * total energy  :   -51.3811908 Eh     change       -0.5446209E-05 Eh
 * total energy  :   -51.3812007 Eh     change       -0.9866138E-05 Eh
 * total energy  :   -51.3812142 Eh     change       -0.1346830E-04 Eh
 * total energy  :   -51.3812282 Eh     change       -0.1398761E-04 Eh
 * total energy  :   -51.3812354 Eh     change       -0.7189985E-05 Eh
 * total energy  :   -51.3812394 Eh     change       -0.4064594E-05 Eh
   *** GEOMETRY OPTIMIZATION CONVERGED AFTER 45 ITERATIONS ***

 final structure:
================
34
 xtb: 6.5.1 (fef0646)
N            2.53686614526827       -0.41658366239371       -0.71382772629059
C            2.35980946051243        0.11337641766840        0.63166083881333
C            3.03163840237895       -0.73584714912390        1.72793888648020
C            4.51593209595495       -0.78550276062813        1.51349463655850
C            5.32602740029522        0.25750724584571        1.95792206643336
C            6.67972225277627        0.25620179807087        1.70890065197072
C            5.09919439933242       -1.83881597630195        0.81457396076184
C            6.45562917114482       -1.85923111870127        0.56789231856738
C            7.26279505281537       -0.80326150173705        1.00041533531156
N            8.61394163918458       -0.91360520966734        0.75231928371240
N            9.30029642302040        0.15116589428736        0.84120441213061
C           10.66428613562248        0.02352101990639        0.65862363685641
C           11.33149154183965       -1.19886657561410        0.50512980866500
C           12.69993609347926       -1.21850926240725        0.34400616339101
C           13.41991764445696       -0.03138524012366        0.33381200706374
C           12.76642588716506        1.18226265087213        0.48653792171376
C           11.39648855158768        1.21477432760977        0.65011215036325
Cl           1.17792089128236        1.26941567051119       -2.70529425138605
H            1.80753121957485        0.49502673076157       -1.77954787056683
H            2.14458864677855       -1.34969995865228       -0.78659478003740
H            3.52327131049811       -0.46437822155478       -0.94983440323506
H            1.28725492261036        0.17961733257507        0.82499459495766
H            2.77561813935025        1.12288238096037        0.64528292738489
H            2.61290422813222       -1.74486167597054        1.70619219643750
H            2.80514819695151       -0.29059453380973        2.69757405384026
H            4.88084967279325        1.07512710341362        2.50746551986147
H            7.31675695723103        1.05455735747623        2.05779122114639
H            4.48327353359460       -2.66054700615254        0.47412085931230
H            6.91086675566986       -2.67325069800781        0.02521130585151
H           10.75108369329810       -2.10895236107171        0.51854900915661
H           13.21542463325764       -2.16061160777930        0.22525656594249
H           14.49233431110957       -0.05396436580649        0.20771181803100
H           13.33095975625427        2.10302043496596        0.47856591584647
H           10.86727483477666        2.14771252058397        0.76881896495438

          :  Hamiltonian                  GFN2-xTB          :
         :: total energy             -51.381239419569 Eh    ::
         :: gradient norm              0.000774711365 Eh/a0 ::
         :: HOMO-LUMO gap              0.706124681075 eV    ::
         :: SCC energy               -52.155078344571 Eh    ::
         :: -> dispersion             -0.031881683789 Eh    ::
         :: repulsion energy           0.774069026739 Eh    ::

    * Orbital Energies and Occupations

         #    Occupation            Energy/Eh            Energy/eV
      -------------------------------------------------------------
         1        2.0000           -1.0183027             -27.7094
       ...           ...                  ...                  ...
        35        2.0000           -0.4633626             -12.6087
        36        2.0000           -0.4447445             -12.1021
        37        2.0000           -0.4421884             -12.0326
        38        2.0000           -0.4334281             -11.7942
        39        2.0000           -0.4289978             -11.6736
        40        2.0000           -0.4247131             -11.5570
        41        2.0000           -0.4200761             -11.4309
        42        2.0000           -0.4152141             -11.2985
        43        2.0000           -0.4041906             -10.9986
        44        2.0000           -0.3954294             -10.7602
        45        2.0000           -0.3953565             -10.7582
        46        2.0000           -0.3929698             -10.6933
        47        2.0000           -0.3369874              -9.1699 (HOMO)
        48        0.0000           -0.3110378              -8.4638 (LUMO)
        49                         -0.2365313              -6.4363
        50                         -0.2319301              -6.3111
        51                         -0.2253032              -6.1308
        52                         -0.1989570              -5.4139
        53                         -0.1022794              -2.7832
        54                         -0.0905392              -2.4637
        55                         -0.0573683              -1.5611
        56                          0.0269055               0.7321
        57                          0.0651633               1.7732
        58                          0.0652162               1.7746
       ...                                ...                  ...
        93                          0.6577067              17.8971
      -------------------------------------------------------------
                  HL-Gap            0.0259496 Eh            0.7061 eV

     #   Z          covCN         q      C6AA      α(0)
     1   7 N        2.676    -0.309    27.949     7.852
     2   6 C        3.733     0.005    20.591     6.476
     3   6 C        3.806    -0.074    21.909     6.663
     4   6 C        2.971     0.013    27.729     8.637
     5   6 C        2.922    -0.038    28.944     8.823
     6   6 C        2.917    -0.034    28.849     8.808
     7   6 C        2.921    -0.042    29.037     8.837
     8   6 C        2.925    -0.037    28.910     8.818
     9   6 C        2.943     0.075    26.322     8.415
    10   7 N        1.945    -0.139    24.780     7.382
    11   7 N        1.946    -0.140    24.804     7.385
    12   6 C        2.942     0.077    26.279     8.408
    13   6 C        2.918    -0.032    28.800     8.800
    14   6 C        2.917    -0.028    28.694     8.784
    15   6 C        2.920    -0.024    28.592     8.769
    16   6 C        2.917    -0.028    28.705     8.786
    17   6 C        2.928    -0.032    28.787     8.799
    18  17 Cl       0.839    -0.472   114.674    16.382
    19   1 H        0.885     0.330     0.628     1.240
    20   1 H        0.860     0.167     1.290     1.779
    21   1 H        0.860     0.169     1.276     1.770
    22   1 H        0.924     0.055     2.254     2.348
    23   1 H        0.924     0.056     2.245     2.343
    24   1 H        0.924     0.041     2.432     2.439
    25   1 H        0.924     0.049     2.329     2.387
    26   1 H        0.926     0.037     2.494     2.470
    27   1 H        0.926     0.054     2.271     2.357
    28   1 H        0.925     0.031     2.570     2.507
    29   1 H        0.926     0.050     2.326     2.385
    30   1 H        0.926     0.054     2.268     2.355
    31   1 H        0.926     0.037     2.495     2.470
    32   1 H        0.926     0.038     2.477     2.461
    33   1 H        0.926     0.038     2.476     2.461
    34   1 H        0.926     0.052     2.296     2.370

Wiberg/Mayer (AO) data.
largest (>0.10) Wiberg bond orders for each atom

     #   Z sym  total        # sym  WBO       # sym  WBO       # sym  WBO
 ---------------------------------------------------------------------------
     1   7 N    3.233 --     2 C    1.015    20 H    0.958    21 H    0.954
                            19 H    0.191
     2   6 C    3.971 --     1 N    1.015     3 C    0.976    23 H    0.974
                            22 H    0.973
     3   6 C    3.995 --     4 C    1.017     2 C    0.976    24 H    0.973
                            25 H    0.968
     4   6 C    3.969 --     7 C    1.395     5 C    1.385     3 C    1.017
     5   6 C    3.991 --     6 C    1.484     4 C    1.385    26 H    0.968
     6   6 C    3.983 --     5 C    1.484     9 C    1.322    27 H    0.966
     7   6 C    3.991 --     8 C    1.469     4 C    1.395    28 H    0.968
     8   6 C    3.975 --     7 C    1.469     9 C    1.338    29 H    0.968
     9   6 C    3.979 --     8 C    1.338     6 C    1.322    10 N    1.158
    10   7 N    3.058 --    11 N    1.661     9 C    1.158
    11   7 N    3.034 --    10 N    1.661    12 C    1.152
    12   6 C    3.980 --    17 C    1.341    13 C    1.331    11 N    1.152
    13   6 C    3.983 --    14 C    1.476    12 C    1.331    30 H    0.966
                            16 C    0.102
    14   6 C    3.992 --    13 C    1.476    15 C    1.416    31 H    0.970
    15   6 C    3.971 --    16 C    1.427    14 C    1.416    32 H    0.971
    16   6 C    3.992 --    17 C    1.465    15 C    1.427    33 H    0.970
                            13 C    0.102
    17   6 C    3.974 --    16 C    1.465    12 C    1.341    34 H    0.968
    18  17 Cl   0.778 --    19 H    0.697
    19   1 H    0.891 --    18 Cl   0.697     1 N    0.191
    20   1 H    0.972 --     1 N    0.958
    21   1 H    0.971 --     1 N    0.954
    22   1 H    0.996 --     2 C    0.973
    23   1 H    0.997 --     2 C    0.974
    24   1 H    0.998 --     3 C    0.973
    25   1 H    0.996 --     3 C    0.968
    26   1 H    0.999 --     5 C    0.968
    27   1 H    0.997 --     6 C    0.966
    28   1 H    0.998 --     7 C    0.968
    29   1 H    0.997 --     8 C    0.968
    30   1 H    0.997 --    13 C    0.966
    31   1 H    0.999 --    14 C    0.970
    32   1 H    0.999 --    15 C    0.971
    33   1 H    0.998 --    16 C    0.970
    34   1 H    0.997 --    17 C    0.968
 ---------------------------------------------------------------------------

molecular dipole:
                 x           y           z       tot (Debye)
 q only:        0.953      -0.998       1.448
   full:        0.975      -1.029       1.349       4.975

           -------------------------------------------------
          | TOTAL ENERGY              -51.381239419569 Eh   |
          | GRADIENT NORM               0.000774711365 Eh/α |
          | HOMO-LUMO GAP               0.706124681075 eV   |
           -------------------------------------------------

 * finished run on 2023/01/23 at 13:48:53.347
