   * xtb version 6.5.1 (fef0646) compiled by 'conda@b96dff2e9fd6' on 2023-01-04
          program call               : xtb init.xyz --opt -c 1 -u 0 -P 16 --input xtb.inp

   ID    Z sym.   atoms
    1    7 N      1
    2    6 C      2, 3, 5-14
    3    8 O      4
    4    1 H      15-28

          :  Hamiltonian                  GFN2-xTB          :
 * total energy  :   -39.3710453 Eh     change       -0.6778293E-09 Eh
 * total energy  :   -39.3754754 Eh     change       -0.4430176E-02 Eh
 * total energy  :   -39.3767379 Eh     change       -0.1262489E-02 Eh
 * total energy  :   -39.3772179 Eh     change       -0.4800055E-03 Eh
 * total energy  :   -39.3777396 Eh     change       -0.5216779E-03 Eh
 * total energy  :   -39.3781688 Eh     change       -0.4291649E-03 Eh
 * total energy  :   -39.3785598 Eh     change       -0.3910647E-03 Eh
 * total energy  :   -39.3788876 Eh     change       -0.3277798E-03 Eh
 * total energy  :   -39.3790569 Eh     change       -0.1692492E-03 Eh
 * total energy  :   -39.3791361 Eh     change       -0.7923334E-04 Eh
 * total energy  :   -39.3793379 Eh     change       -0.1099713E-04 Eh
 * total energy  :   -39.3793494 Eh     change       -0.1148681E-04 Eh
 * total energy  :   -39.3793576 Eh     change       -0.8245768E-05 Eh
 * total energy  :   -39.3793666 Eh     change       -0.8924557E-05 Eh
 * total energy  :   -39.3793756 Eh     change       -0.9075494E-05 Eh
 * total energy  :   -39.3793810 Eh     change       -0.5366800E-05 Eh
 * total energy  :   -39.3793901 Eh     change       -0.9047398E-05 Eh
 * total energy  :   -39.3793957 Eh     change       -0.5646047E-05 Eh
 * total energy  :   -39.3793995 Eh     change       -0.3774986E-05 Eh
   *** GEOMETRY OPTIMIZATION CONVERGED AFTER 25 ITERATIONS ***

 final structure:
================
28
 xtb: 6.5.1 (fef0646)
N            4.03679910737792        0.03205529268617        1.28515484942059
C            2.81054746491094        0.56243881743696        0.62654418259434
C            3.27803886231382        1.72812866224105       -0.25113862469841
O            4.43738070191684        1.23718829920125       -0.88896833057369
C            5.15217965025278        2.07374870240765       -1.75042267563639
C            4.79890482413683        3.36564153612660       -2.02146046677724
C            5.59148424756687        4.13790316573538       -2.88769886836521
C            6.71209994051519        3.61348643550042       -3.46126959063285
C            7.09492933544407        2.27992280741259       -3.20252267445157
C            8.24295204961757        1.70875850733785       -3.78942694766177
C            8.59402055957995        0.41316250876640       -3.53122599935094
C            7.80882925356989       -0.37328531853503       -2.67623039768803
C            6.68974879509639        0.14924303271337       -2.08964164887017
C            6.30503135515130        1.48399287642830       -2.33249788653579
H            3.95412469505327       -0.94808367554379        1.56986335008858
H            4.31314790077403        0.59991217669725        2.09384401986778
H            4.75500343853851        0.15344480622048        0.52454000660663
H            2.06531399425422        0.87545511823687        1.35553364590446
H            2.39472279486752       -0.22279214858486       -0.00619432546172
H            3.51470061178021        2.61006288072633        0.35968402837914
H            2.50159830270332        1.99600668764140       -0.97450087355122
H            3.91829156998326        3.81536418758606       -1.59106663001932
H            5.29433598175962        5.15496766150401       -3.08839590940514
H            7.32010261172301        4.20888487593813       -4.12431477285260
H            8.83889145950244        2.31735108835887       -4.45242131118788
H            9.47271461387792       -0.01603561043266       -3.98685355175964
H            8.09213303127317       -1.39765932022869       -2.48747272912159
H            6.07737284645882       -0.46963405357829       -1.44863986826061

          :  Hamiltonian                  GFN2-xTB          :
         :: total energy             -39.379399482407 Eh    ::
         :: gradient norm              0.000340726859 Eh/a0 ::
         :: HOMO-LUMO gap              3.207024725865 eV    ::
         :: SCC energy               -40.018409620925 Eh    ::
         :: -> dispersion             -0.024689172866 Eh    ::
         :: repulsion energy           0.638929300742 Eh    ::

    * Orbital Energies and Occupations

         #    Occupation            Energy/Eh            Energy/eV
      -------------------------------------------------------------
         1        2.0000           -0.8913003             -24.2535
       ...           ...                  ...                  ...
        24        2.0000           -0.6065766             -16.5058
        25        2.0000           -0.5882861             -16.0081
        26        2.0000           -0.5823054             -15.8453
        27        2.0000           -0.5811850             -15.8148
        28        2.0000           -0.5722113             -15.5707
        29        2.0000           -0.5575137             -15.1707
        30        2.0000           -0.5493583             -14.9488
        31        2.0000           -0.5433128             -14.7843
        32        2.0000           -0.5199950             -14.1498
        33        2.0000           -0.5174982             -14.0818
        34        2.0000           -0.5157587             -14.0345
        35        2.0000           -0.5008912             -13.6299
        36        2.0000           -0.4754284             -12.9371 (HOMO)
        37                         -0.3575724              -9.7300 (LUMO)
        38                         -0.3292363              -8.9590
        39                         -0.2882395              -7.8434
        40                         -0.2564314              -6.9779
        41                         -0.2427828              -6.6065
        42                         -0.1596101              -4.3432
        43                         -0.1558038              -4.2396
        44                         -0.1418182              -3.8591
        45                         -0.1018674              -2.7720
        46                         -0.0906342              -2.4663
        47                         -0.0588777              -1.6021
       ...                                ...                  ...
        70                          0.5949108              16.1883
      -------------------------------------------------------------
                  HL-Gap            0.1178560 Eh            3.2070 eV

     #   Z          covCN         q      C6AA      α(0)
     1   7 N        3.485    -0.141    24.039     7.282
     2   6 C        3.731    -0.036    21.315     6.590
     3   6 C        3.689     0.059    19.775     6.365
     4   8 O        1.704    -0.307    19.123     5.904
     5   6 C        2.856     0.119    25.379     8.257
     6   6 C        2.913    -0.065    29.616     8.924
     7   6 C        2.918    -0.029    28.718     8.788
     8   6 C        2.917    -0.036    28.903     8.816
     9   6 C        2.988     0.019    27.584     8.615
    10   6 C        2.920    -0.027    28.683     8.782
    11   6 C        2.916    -0.023    28.567     8.765
    12   6 C        2.917    -0.025    28.636     8.775
    13   6 C        2.917    -0.036    28.886     8.813
    14   6 C        2.985    -0.005    28.132     8.700
    15   1 H        0.859     0.267     0.822     1.420
    16   1 H        0.859     0.266     0.825     1.423
    17   1 H        0.857     0.309     0.688     1.300
    18   1 H        0.925     0.110     1.693     2.035
    19   1 H        0.924     0.120     1.616     1.988
    20   1 H        0.923     0.062     2.175     2.307
    21   1 H        0.924     0.086     1.922     2.168
    22   1 H        0.926     0.037     2.490     2.468
    23   1 H        0.926     0.054     2.270     2.356
    24   1 H        0.926     0.057     2.234     2.337
    25   1 H        0.926     0.054     2.272     2.357
    26   1 H        0.926     0.053     2.288     2.365
    27   1 H        0.926     0.044     2.397     2.421
    28   1 H        0.926     0.016     2.795     2.615

Wiberg/Mayer (AO) data.
largest (>0.10) Wiberg bond orders for each atom

     #   Z sym  total        # sym  WBO       # sym  WBO       # sym  WBO
 ---------------------------------------------------------------------------
     1   7 N    3.662 --     2 C    0.949    15 H    0.916    16 H    0.915
                            17 H    0.837
     2   6 C    3.908 --     3 C    0.999    18 H    0.969    19 H    0.965
                             1 N    0.949
     3   6 C    3.950 --     2 C    0.999     4 O    0.986    20 H    0.964
                            21 H    0.960
     4   8 O    2.190 --     3 C    0.986     5 C    0.966
     5   6 C    3.906 --     6 C    1.512    14 C    1.227     4 O    0.966
                             8 C    0.105
     6   6 C    3.988 --     5 C    1.512     7 C    1.309    22 H    0.965
     7   6 C    3.990 --     8 C    1.565     6 C    1.309    23 H    0.969
     8   6 C    3.990 --     7 C    1.565     9 C    1.272    24 H    0.966
                             5 C    0.105
     9   6 C    3.990 --    10 C    1.283     8 C    1.272    14 C    1.255
    10   6 C    3.990 --    11 C    1.554     9 C    1.283    25 H    0.967
                            13 C    0.118
    11   6 C    3.991 --    10 C    1.554    12 C    1.326    26 H    0.969
    12   6 C    3.991 --    13 C    1.549    11 C    1.326    27 H    0.970
    13   6 C    3.992 --    12 C    1.549    14 C    1.288    28 H    0.967
                            10 C    0.118
    14   6 C    3.987 --    13 C    1.288     9 C    1.255     5 C    1.227
    15   1 H    0.929 --     1 N    0.916
    16   1 H    0.929 --     1 N    0.915
    17   1 H    0.904 --     1 N    0.837
    18   1 H    0.987 --     2 C    0.969
    19   1 H    0.986 --     2 C    0.965
    20   1 H    0.996 --     3 C    0.964
    21   1 H    0.992 --     3 C    0.960
    22   1 H    0.998 --     6 C    0.965
    23   1 H    0.997 --     7 C    0.969
    24   1 H    0.996 --     8 C    0.966
    25   1 H    0.997 --    10 C    0.967
    26   1 H    0.996 --    11 C    0.969
    27   1 H    0.998 --    12 C    0.970
    28   1 H    0.999 --    13 C    0.967
 ---------------------------------------------------------------------------

molecular dipole:
                 x           y           z       tot (Debye)
 q only:        7.928       1.002       1.218
   full:        7.876       1.017       1.382      20.490

           -------------------------------------------------
          | TOTAL ENERGY              -39.379399482407 Eh   |
          | GRADIENT NORM               0.000340726859 Eh/α |
          | HOMO-LUMO GAP               3.207024725865 eV   |
           -------------------------------------------------

 * finished run on 2023/01/23 at 21:03:48.279
