   * xtb version 6.5.1 (fef0646) compiled by 'conda@b96dff2e9fd6' on 2023-01-04
          program call               : xtb init.xyz --opt -c 0 -u 0 -P 16 --input xtb.inp

   ID    Z sym.   atoms
    1    7 N      1
    2    6 C      2-6
    3    8 O      7, 8
    4   17 Cl     9
    5    1 H      10-21

          :  Hamiltonian                  GFN2-xTB          :
 * total energy  :   -32.4095403 Eh     change       -0.3654108E-09 Eh
 * total energy  :   -32.4173259 Eh     change       -0.7785622E-02 Eh
 * total energy  :   -32.4212951 Eh     change       -0.3969261E-02 Eh
 * total energy  :   -32.4242108 Eh     change       -0.2915632E-02 Eh
 * total energy  :   -32.4269204 Eh     change       -0.2709667E-02 Eh
 * total energy  :   -32.4287347 Eh     change       -0.1814301E-02 Eh
 * total energy  :   -32.4291334 Eh     change       -0.3986567E-03 Eh
 * total energy  :   -32.4291977 Eh     change       -0.6428257E-04 Eh
 * total energy  :   -32.4293361 Eh     change       -0.1384105E-03 Eh
 * total energy  :   -32.4293658 Eh     change       -0.2967291E-04 Eh
 * total energy  :   -32.4297947 Eh     change       -0.2136444E-04 Eh
 * total energy  :   -32.4298084 Eh     change       -0.1366540E-04 Eh
 * total energy  :   -32.4298155 Eh     change       -0.7122962E-05 Eh
 * total energy  :   -32.4298286 Eh     change       -0.1311274E-04 Eh
 * total energy  :   -32.4298425 Eh     change       -0.1385427E-04 Eh
 * total energy  :   -32.4298556 Eh     change       -0.1314320E-04 Eh
 * total energy  :   -32.4298672 Eh     change       -0.1156433E-04 Eh
 * total energy  :   -32.4298740 Eh     change       -0.6799616E-05 Eh
 * total energy  :   -32.4298788 Eh     change       -0.4790379E-05 Eh
   *** GEOMETRY OPTIMIZATION CONVERGED AFTER 28 ITERATIONS ***

 final structure:
================
21
 xtb: 6.5.1 (fef0646)
N            1.06767725947405       -0.10611987122797       -0.31427387546250
C            2.52479131883927       -0.11126902232035       -0.45130443487099
C            3.13310916359169       -1.05878740512701        0.58060699691491
C            4.65042699180934       -0.92227433643553        0.68938491909099
C            5.07047797801474        0.34381092958073        1.43247744528821
C            6.57885592116935        0.44426409533794        1.55688078760052
O            7.01045311559037        1.48035581501156        2.30307550728588
O            7.35561715532778       -0.30437537236177        1.04305380788158
Cl           0.54726199057939        1.01827800338106        2.33669773454380
H            0.63224538714448        0.48674959773701       -1.01199641240588
H            0.76147915588672        0.47618348087829        1.08832967369037
H            0.69307054750908       -1.04531199860146       -0.40285013063509
H            2.86135219626759        0.91182729576948       -0.27278021118822
H            2.84741930027481       -0.40645264058454       -1.45935363351724
H            2.88544768478051       -2.08539912250986        0.30308633901953
H            2.67650924951778       -0.85440525889789        1.54976753578382
H            5.10294506244597       -0.92312200375402       -0.30347810345512
H            5.05198475935948       -1.78184072278289        1.22755827046265
H            4.62718739673394        0.35212356377069        2.43218553404938
H            4.72137957514143        1.23569663051367        0.90493141526069
H            6.28693879054161        2.00269834262229        2.67382083466260

          :  Hamiltonian                  GFN2-xTB          :
         :: total energy             -32.429878790728 Eh    ::
         :: gradient norm              0.000582292950 Eh/a0 ::
         :: HOMO-LUMO gap              4.558689163075 eV    ::
         :: SCC energy               -32.736076684445 Eh    ::
         :: -> dispersion             -0.013557749230 Eh    ::
         :: repulsion energy           0.306137024486 Eh    ::

    * Orbital Energies and Occupations

         #    Occupation            Energy/Eh            Energy/eV
      -------------------------------------------------------------
         1        2.0000           -1.0258453             -27.9147
       ...           ...                  ...                  ...
        16        2.0000           -0.5201184             -14.1531
        17        2.0000           -0.5132189             -13.9654
        18        2.0000           -0.5034958             -13.7008
        19        2.0000           -0.4899355             -13.3318
        20        2.0000           -0.4849872             -13.1972
        21        2.0000           -0.4772945             -12.9878
        22        2.0000           -0.4705953             -12.8056
        23        2.0000           -0.4536514             -12.3445
        24        2.0000           -0.4483179             -12.1994
        25        2.0000           -0.4208415             -11.4517
        26        2.0000           -0.4081273             -11.1057
        27        2.0000           -0.4033688             -10.9762
        28        2.0000           -0.4030311             -10.9670 (HOMO)
        29                         -0.2355024              -6.4083 (LUMO)
        30                         -0.0655961              -1.7850
        31                          0.0008021               0.0218
        32                          0.0424169               1.1542
        33                          0.0580909               1.5807
        34                          0.0587433               1.5985
        35                          0.0640763               1.7436
        36                          0.0643922               1.7522
        37                          0.0654148               1.7800
        38                          0.0748698               2.0373
        39                          0.0879826               2.3941
       ...                                ...                  ...
        53                          0.6522203              17.7478
      -------------------------------------------------------------
                  HL-Gap            0.1675287 Eh            4.5587 eV

     #   Z          covCN         q      C6AA      α(0)
     1   7 N        2.706    -0.304    27.833     7.836
     2   6 C        3.731     0.004    20.596     6.478
     3   6 C        3.804    -0.077    21.967     6.673
     4   6 C        3.803    -0.061    21.662     6.626
     5   6 C        3.802    -0.104    22.480     6.750
     6   6 C        2.688     0.357    20.945     7.490
     7   8 O        1.659    -0.375    20.373     6.093
     8   8 O        0.856    -0.364    20.984     6.142
     9  17 Cl       0.837    -0.492   115.373    16.432
    10   1 H        0.860     0.168     1.288     1.778
    11   1 H        0.911     0.333     0.620     1.232
    12   1 H        0.860     0.169     1.281     1.773
    13   1 H        0.924     0.053     2.279     2.361
    14   1 H        0.923     0.029     2.600     2.522
    15   1 H        0.924     0.043     2.409     2.427
    16   1 H        0.924     0.067     2.120     2.277
    17   1 H        0.924     0.054     2.274     2.358
    18   1 H        0.924     0.057     2.235     2.338
    19   1 H        0.924     0.063     2.160     2.298
    20   1 H        0.924     0.061     2.191     2.315
    21   1 H        0.805     0.320     0.665     1.280

Wiberg/Mayer (AO) data.
largest (>0.10) Wiberg bond orders for each atom

     #   Z sym  total        # sym  WBO       # sym  WBO       # sym  WBO
 ---------------------------------------------------------------------------
     1   7 N    3.247 --     2 C    1.004    10 H    0.958    12 H    0.957
                            11 H    0.214
     2   6 C    3.973 --     3 C    1.007     1 N    1.004    14 H    0.973
                            13 H    0.971
     3   6 C    3.993 --     4 C    1.007     2 C    1.007    15 H    0.976
                            16 H    0.970
     4   6 C    3.993 --     5 C    1.008     3 C    1.007    18 H    0.975
                            17 H    0.975
     5   6 C    3.996 --     4 C    1.008     6 C    0.971    19 H    0.957
                            20 H    0.950
     6   6 C    3.917 --     8 O    1.802     7 O    1.110     5 C    0.971
     7   8 O    2.194 --     6 C    1.110    21 H    0.876     8 O    0.161
     8   8 O    2.078 --     6 C    1.802     7 O    0.161
     9  17 Cl   0.762 --    11 H    0.671
    10   1 H    0.972 --     1 N    0.958
    11   1 H    0.889 --     9 Cl   0.671     1 N    0.214
    12   1 H    0.972 --     1 N    0.957
    13   1 H    0.997 --     2 C    0.971
    14   1 H    0.999 --     2 C    0.973
    15   1 H    0.998 --     3 C    0.976
    16   1 H    0.996 --     3 C    0.970
    17   1 H    0.997 --     4 C    0.975
    18   1 H    0.996 --     4 C    0.975
    19   1 H    0.996 --     5 C    0.957
    20   1 H    0.996 --     5 C    0.950
    21   1 H    0.898 --     7 O    0.876
 ---------------------------------------------------------------------------

molecular dipole:
                 x           y           z       tot (Debye)
 q only:       -0.810      -0.214      -1.279
   full:       -1.321       0.062      -1.115       4.396

           -------------------------------------------------
          | TOTAL ENERGY              -32.429878790728 Eh   |
          | GRADIENT NORM               0.000582292950 Eh/α |
          | HOMO-LUMO GAP               4.558689163075 eV   |
           -------------------------------------------------

 * finished run on 2023/01/23 at 20:02:42.701
