   * xtb version 6.5.1 (fef0646) compiled by 'conda@b96dff2e9fd6' on 2023-01-04
          program call               : xtb init.xyz --opt -c 0 -u 0 -P 16 --alpb water

   ID    Z sym.   atoms
    1    7 N      1
    2    6 C      2-6
    3    8 O      7, 8
    4   17 Cl     9
    5    1 H      10-21

      * Solvation model:               ALPB
        Solvent                        water
        Solvent mass                       1.8000E+01 g/mol
          :  Hamiltonian                  GFN2-xTB          :
 * total energy  :   -32.4773088 Eh     change       -0.1170754E-08 Eh
 * total energy  :   -32.4819491 Eh     change       -0.4640369E-02 Eh
 * total energy  :   -32.4832039 Eh     change       -0.1254765E-02 Eh
 * total energy  :   -32.4835950 Eh     change       -0.3911019E-03 Eh
 * total energy  :   -32.4839027 Eh     change       -0.3076960E-03 Eh
 * total energy  :   -32.4841146 Eh     change       -0.2119145E-03 Eh
 * total energy  :   -32.4843079 Eh     change       -0.1932991E-03 Eh
 * total energy  :   -32.4844202 Eh     change       -0.1123196E-03 Eh
 * total energy  :   -32.4844871 Eh     change       -0.6691747E-04 Eh
 * total energy  :   -32.4845488 Eh     change       -0.6167120E-04 Eh
 * total energy  :   -32.4848536 Eh     change       -0.4959453E-04 Eh
 * total energy  :   -32.4848729 Eh     change       -0.1929839E-04 Eh
 * total energy  :   -32.4848877 Eh     change       -0.1480975E-04 Eh
 * total energy  :   -32.4849060 Eh     change       -0.1833264E-04 Eh
 * total energy  :   -32.4849254 Eh     change       -0.1937282E-04 Eh
 * total energy  :   -32.4849411 Eh     change       -0.1572722E-04 Eh
 * total energy  :   -32.4849512 Eh     change       -0.1006750E-04 Eh
 * total energy  :   -32.4849628 Eh     change       -0.1161553E-04 Eh
 * total energy  :   -32.4849676 Eh     change       -0.4851392E-05 Eh
   *** GEOMETRY OPTIMIZATION CONVERGED AFTER 22 ITERATIONS ***

 final structure:
================
21
 xtb: 6.5.1 (fef0646)
N            0.97337524332779       -0.25041596332484       -0.24239110036107
C            2.44647069625817       -0.25377559828036       -0.14181647003963
C            3.04929957267064       -1.39916608350387       -0.94788037431427
C            4.57378956044710       -1.38839372655688       -0.85126747912611
C            5.19054522277924       -2.55457172823982       -1.62169334877979
C            6.69772274794171       -2.52986922375211       -1.57630344005871
O            7.31531321469163       -3.55693739615736       -2.16536801533355
O            7.35025423943003       -1.65423078729851       -1.05718550256031
Cl          -0.13690827874277        1.93938009880221        1.55400308561101
H            0.57139640166163        0.51421423783786        0.35825802248711
H            0.58272207255218       -1.13552930005299        0.08966521780734
H            0.66987419358004       -0.08366113550337       -1.20451599407882
H            2.71994211207572       -0.34222912716455        0.90921317701772
H            2.82154969040146        0.70414659404568       -0.50060850928280
H            2.76005513985715       -1.30653399590968       -1.99522702940196
H            2.67716228938665       -2.35108545024377       -0.56735155030382
H            4.88444409254226       -1.44834258404903        0.19285508966925
H            4.97118679067197       -0.45250171716077       -1.24661067948206
H            4.88602917663447       -2.51060386194325       -2.67039836484678
H            4.84679935797742       -3.50362902792066       -1.20458251886217
H            6.70771646385576       -4.21130422362380       -2.55621421576139

          :  Hamiltonian                  GFN2-xTB          :
         :: total energy             -32.484967642915 Eh    ::
         :: gradient norm              0.000469256967 Eh/a0 ::
         :: HOMO-LUMO gap              4.494208584883 eV    ::
         :: SCC energy               -32.796810161735 Eh    ::
         :: -> dispersion             -0.011854958615 Eh    ::
         :: -> Gsolv                  -0.096201954808 Eh    ::
         :: repulsion energy           0.311924372338 Eh    ::

    * Orbital Energies and Occupations

         #    Occupation            Energy/Eh            Energy/eV
      -------------------------------------------------------------
         1        2.0000           -1.0067514             -27.3951
       ...           ...                  ...                  ...
        16        2.0000           -0.5195807             -14.1385
        17        2.0000           -0.5067781             -13.7901
        18        2.0000           -0.4872092             -13.2576
        19        2.0000           -0.4777245             -12.9995
        20        2.0000           -0.4740067             -12.8984
        21        2.0000           -0.4631942             -12.6042
        22        2.0000           -0.4490666             -12.2197
        23        2.0000           -0.4479706             -12.1899
        24        2.0000           -0.4275699             -11.6348
        25        2.0000           -0.4199315             -11.4269
        26        2.0000           -0.4036908             -10.9850
        27        2.0000           -0.4006119             -10.9012
        28        2.0000           -0.4006065             -10.9011 (HOMO)
        29                         -0.2354473              -6.4068 (LUMO)
        30                         -0.0291437              -0.7930
        31                          0.0462552               1.2587
        32                          0.0760260               2.0688
        33                          0.0859256               2.3382
        34                          0.1021830               2.7805
        35                          0.1087499               2.9592
        36                          0.1147800               3.1233
        37                          0.1166912               3.1753
        38                          0.1167921               3.1781
        39                          0.1190999               3.2409
       ...                                ...                  ...
        53                          0.6078746              16.5411
      -------------------------------------------------------------
                  HL-Gap            0.1651591 Eh            4.4942 eV

     #   Z          covCN         q      C6AA      α(0)
     1   7 N        3.483    -0.168    24.612     7.368
     2   6 C        3.733    -0.025    21.103     6.557
     3   6 C        3.803    -0.086    22.142     6.699
     4   6 C        3.805    -0.064    21.733     6.637
     5   6 C        3.803    -0.116    22.720     6.786
     6   6 C        2.689     0.370    20.730     7.451
     7   8 O        1.659    -0.434    21.523     6.263
     8   8 O        0.856    -0.470    23.137     6.449
     9  17 Cl       0.059    -0.946   124.826    17.004
    10   1 H        0.915     0.294     0.726     1.333
    11   1 H        0.859     0.299     0.717     1.327
    12   1 H        0.859     0.299     0.716     1.326
    13   1 H        0.925     0.094     1.842     2.123
    14   1 H        0.925     0.095     1.833     2.117
    15   1 H        0.924     0.074     2.038     2.233
    16   1 H        0.924     0.074     2.043     2.235
    17   1 H        0.924     0.050     2.318     2.381
    18   1 H        0.924     0.052     2.296     2.369
    19   1 H        0.924     0.098     1.803     2.100
    20   1 H        0.924     0.095     1.833     2.117
    21   1 H        0.804     0.416     0.457     1.061

Wiberg/Mayer (AO) data.
largest (>0.10) Wiberg bond orders for each atom

     #   Z sym  total        # sym  WBO       # sym  WBO       # sym  WBO
 ---------------------------------------------------------------------------
     1   7 N    3.646 --     2 C    0.969    12 H    0.896    11 H    0.896
                            10 H    0.830
     2   6 C    3.930 --     3 C    1.008     1 N    0.969    13 H    0.968
                            14 H    0.968
     3   6 C    3.989 --     2 C    1.008     4 C    1.006    15 H    0.972
                            16 H    0.972
     4   6 C    3.992 --     5 C    1.007     3 C    1.006    17 H    0.976
                            18 H    0.975
     5   6 C    3.991 --     4 C    1.007     6 C    0.986    20 H    0.947
                            19 H    0.943
     6   6 C    3.898 --     8 O    1.724     7 O    1.150     5 C    0.986
     7   8 O    2.163 --     6 C    1.150    21 H    0.806     8 O    0.157
     8   8 O    1.994 --     6 C    1.724     7 O    0.157
     9  17 Cl   0.105
    10   1 H    0.913 --     1 N    0.830
    11   1 H    0.911 --     1 N    0.896
    12   1 H    0.911 --     1 N    0.896
    13   1 H    0.991 --     2 C    0.968
    14   1 H    0.991 --     2 C    0.968
    15   1 H    0.994 --     3 C    0.972
    16   1 H    0.995 --     3 C    0.972
    17   1 H    0.997 --     4 C    0.976
    18   1 H    0.997 --     4 C    0.975
    19   1 H    0.990 --     5 C    0.943
    20   1 H    0.991 --     5 C    0.947
    21   1 H    0.827 --     7 O    0.806
 ---------------------------------------------------------------------------

molecular dipole:
                 x           y           z       tot (Debye)
 q only:        0.544      -5.228      -4.007
   full:        0.051      -4.833      -3.662      15.413

           -------------------------------------------------
          | TOTAL ENERGY              -32.484967642915 Eh   |
          | GRADIENT NORM               0.000469256967 Eh/α |
          | HOMO-LUMO GAP               4.494208584883 eV   |
           -------------------------------------------------

 * finished run on 2023/01/24 at 16:03:17.857
