   * xtb version 6.5.1 (fef0646) compiled by 'conda@b96dff2e9fd6' on 2023-01-04
          program call               : xtb init.xyz --opt -c 0 -u 0 -P 16 --alpb water

   ID    Z sym.   atoms
    1    7 N      1, 16, 19
    2    6 C      2-15, 17, 18, 20-25
    3   16 S      26-29
    4   17 Cl     30
    5    1 H      31-48

      * Solvation model:               ALPB
        Solvent                        water
        Solvent mass                       1.8000E+01 g/mol
          :  Hamiltonian                  GFN2-xTB          :
 * total energy  :   -82.5445936 Eh     change       -0.3237659E-08 Eh
 * total energy  :   -82.5582116 Eh     change       -0.1361794E-01 Eh
 * total energy  :   -82.5623920 Eh     change       -0.4180458E-02 Eh
 * total energy  :   -82.5621423 Eh     change        0.2497185E-03 Eh
 * total energy  :   -82.5637464 Eh     change       -0.1604082E-02 Eh
 * total energy  :   -82.5638171 Eh     change       -0.7070670E-04 Eh
 * total energy  :   -82.5643893 Eh     change       -0.5722128E-03 Eh
 * total energy  :   -82.5647747 Eh     change       -0.3854219E-03 Eh
 * total energy  :   -82.5652855 Eh     change       -0.5107445E-03 Eh
 * total energy  :   -82.5658590 Eh     change       -0.5735472E-03 Eh
 * total energy  :   -82.5746102 Eh     change       -0.2282600E-04 Eh
 * total energy  :   -82.5746390 Eh     change       -0.2878524E-04 Eh
 * total energy  :   -82.5746512 Eh     change       -0.1223213E-04 Eh
 * total energy  :   -82.5746653 Eh     change       -0.1404879E-04 Eh
 * total energy  :   -82.5746743 Eh     change       -0.9030650E-05 Eh
 * total energy  :   -82.5746819 Eh     change       -0.7635046E-05 Eh
 * total energy  :   -82.5746871 Eh     change       -0.5119447E-05 Eh
 * total energy  :   -82.5746942 Eh     change       -0.7150447E-05 Eh
 * total energy  :   -82.5746970 Eh     change       -0.2795301E-05 Eh
   *** GEOMETRY OPTIMIZATION CONVERGED AFTER 62 ITERATIONS ***

 final structure:
================
48
 xtb: 6.5.1 (fef0646)
N            3.22641775463507        0.82123044503028        0.38725097066359
C            2.88128066367643        1.52037007866750       -0.86213715870252
C            4.04475372466214        2.39239612129871       -1.34908864381143
C            5.17986857509861        1.56903448949289       -1.85301852403807
C            5.47675773706192        1.23228626139318       -3.14179416157261
C            6.59889741757824        0.39554265510103       -3.25813680618642
C            7.17196073168346        0.08066605505900       -2.05032865614458
C            8.30322822828604       -0.73888022473616       -1.78703947055605
C            8.87563726228416       -1.03392180772939       -0.57195324418557
C            9.98831784029408       -1.88032514600481       -0.65124424920568
C           10.75213895794998       -2.31931661364778        0.54726219990036
C           10.27616457202718       -2.24588595742141       -1.96163976322456
C           11.30958345487567       -3.08472340373397       -2.44626080153133
C           11.57258444105180       -3.45643528901644       -3.75949501328887
C           10.84616249163065       -3.06091289553781       -4.88562832028578
N           10.28195862543152       -2.76369993851191       -5.84458945336369
C           12.70325079914051       -4.32342542434977       -3.88901085399185
C           13.09337215234590       -4.78960380834698       -5.14878418602129
N           13.36207777531431       -5.14044414975184       -6.21147947068194
C           13.31351951073871       -4.61981369632061       -2.67919166119815
C           14.45194653832579       -5.43696753947220       -2.44023892735016
C           15.06219557616421       -5.74444701145961       -1.23440733594609
C           14.62569869182239       -5.26383104578339        0.10424543860136
C           16.17813535525719       -6.58914921834995       -1.41415612178943
C           16.41073417166510       -6.91437135654397       -2.71204637552877
S           15.27368673041186       -6.20365140352603       -3.78436871138212
S           12.47479567416470       -3.81955423961733       -1.38354820624535
S            9.14881094946543       -1.52224708538141       -3.09221154153614
S            6.31083236026703        0.84296772112884       -0.75226289108354
Cl           1.06571765389973       -1.26713754465125        0.87742891385160
H            2.47690195524532        0.12189054356714        0.62454282639058
H            3.31951591210922        1.47528685786713        1.16720836494363
H            4.10529359648453        0.30342987701910        0.28124904880541
H            2.00332005232864        2.13878463996884       -0.68459388533801
H            2.62524635083256        0.77618869348736       -1.61564441897281
H            4.38589733914277        3.03231069271250       -0.53573829310519
H            3.68842623699909        3.02465825893682       -2.16113150931423
H            4.90982438473276        1.57451219590742       -3.98820091333225
H            6.98879658171746        0.02649680017913       -4.19112052476546
H            8.49603375975700       -0.64471923357905        0.35624125355362
H           10.31007114871077       -1.89145244156686        1.44155537115568
H           11.79124292806313       -2.00025525956083        0.47899388875625
H           10.74179601270368       -3.40491318393912        0.63361977607977
H           13.60302980112366       -5.57548038435732        0.31222181301539
H           14.66031742410206       -4.17631309223736        0.15368521660381
H           15.27895202363734       -5.67060255660736        0.86980036728529
H           16.78484740305801       -6.94021749105342       -0.59989714852197
H           17.18519067195921       -7.53353394401380       -3.11766820736142

          :  Hamiltonian                  GFN2-xTB          :
         :: total energy             -82.574697014104 Eh    ::
         :: gradient norm              0.000565687790 Eh/a0 ::
         :: HOMO-LUMO gap              1.662734425336 eV    ::
         :: SCC energy               -83.814439392718 Eh    ::
         :: -> dispersion             -0.065584447866 Eh    ::
         :: -> Gsolv                  -0.102811842514 Eh    ::
         :: repulsion energy           1.240320218720 Eh    ::

    * Orbital Energies and Occupations

         #    Occupation            Energy/Eh            Energy/eV
      -------------------------------------------------------------
         1        2.0000           -1.0042613             -27.3273
       ...           ...                  ...                  ...
        64        2.0000           -0.4445768             -12.0976
        65        2.0000           -0.4401953             -11.9783
        66        2.0000           -0.4395489             -11.9607
        67        2.0000           -0.4225486             -11.4981
        68        2.0000           -0.4183347             -11.3835
        69        2.0000           -0.4056766             -11.0390
        70        2.0000           -0.4040311             -10.9942
        71        2.0000           -0.4031776             -10.9710
        72        2.0000           -0.4016156             -10.9285
        73        2.0000           -0.3981483             -10.8342
        74        2.0000           -0.3980122             -10.8305
        75        2.0000           -0.3916127             -10.6563
        76        2.0000           -0.3678765             -10.0104 (HOMO)
        77                         -0.3067722              -8.3477 (LUMO)
        78                         -0.2948285              -8.0227
        79                         -0.2620118              -7.1297
        80                         -0.2449778              -6.6662
        81                         -0.2373143              -6.4577
        82                         -0.2345653              -6.3828
        83                         -0.2264564              -6.1622
        84                         -0.2190033              -5.9594
        85                         -0.2153225              -5.8592
        86                         -0.2062365              -5.6120
        87                         -0.1917292              -5.2172
       ...                                ...                  ...
       163                          1.1725430              31.9065
      -------------------------------------------------------------
                  HL-Gap            0.0611044 Eh            1.6627 eV

     #   Z          covCN         q      C6AA      α(0)
     1   7 N        3.483    -0.165    24.561     7.361
     2   6 C        3.733    -0.025    21.115     6.558
     3   6 C        3.825    -0.093    22.253     6.713
     4   6 C        2.986     0.031    27.303     8.571
     5   6 C        3.110    -0.058    29.285     8.866
     6   6 C        3.113    -0.048    29.016     8.824
     7   6 C        3.024     0.008    27.811     8.650
     8   6 C        3.021     0.034    27.219     8.558
     9   6 C        3.094    -0.064    29.479     8.899
    10   6 C        3.111     0.016    27.504     8.592
    11   6 C        3.758    -0.135    23.145     6.859
    12   6 C        3.022     0.006    27.868     8.659
    13   6 C        3.013     0.025    27.436     8.592
    14   6 C        3.152    -0.015    28.105     8.671
    15   6 C        1.910     0.120    28.153     8.569
    16   7 N        0.911    -0.309    27.938     7.645
    17   6 C        3.152    -0.013    28.041     8.660
    18   6 C        1.908     0.120    28.149     8.568
    19   7 N        0.911    -0.303    27.799     7.626
    20   6 C        3.011     0.025    27.428     8.591
    21   6 C        3.024     0.006    27.864     8.659
    22   6 C        3.123     0.014    27.515     8.590
    23   6 C        3.758    -0.134    23.128     6.857
    24   6 C        3.108    -0.054    29.197     8.853
    25   6 C        2.933    -0.014    28.354     8.733
    26  16 S        2.302    -0.065   143.773    20.181
    27  16 S        2.365     0.041   139.402    19.872
    28  16 S        2.321    -0.093   144.935    20.262
    29  16 S        2.367    -0.009   141.419    20.015
    30  17 Cl       0.055    -0.947   124.854    17.006
    31   1 H        0.912     0.299     0.712     1.320
    32   1 H        0.859     0.306     0.696     1.307
    33   1 H        0.859     0.288     0.750     1.357
    34   1 H        0.925     0.115     1.654     2.011
    35   1 H        0.925     0.099     1.796     2.095
    36   1 H        0.925     0.106     1.734     2.059
    37   1 H        0.925     0.096     1.818     2.109
    38   1 H        0.926     0.055     2.252     2.347
    39   1 H        0.926     0.031     2.570     2.507
    40   1 H        0.926     0.076     2.018     2.222
    41   1 H        0.925     0.083     1.946     2.182
    42   1 H        0.925     0.080     1.978     2.199
    43   1 H        0.925     0.078     1.997     2.210
    44   1 H        0.925     0.080     1.983     2.202
    45   1 H        0.925     0.081     1.968     2.194
    46   1 H        0.925     0.080     1.979     2.200
    47   1 H        0.926     0.072     2.068     2.249
    48   1 H        0.926     0.073     2.056     2.242

Wiberg/Mayer (AO) data.
largest (>0.10) Wiberg bond orders for each atom

     #   Z sym  total        # sym  WBO       # sym  WBO       # sym  WBO
 ---------------------------------------------------------------------------
     1   7 N    3.646 --     2 C    0.975    32 H    0.892    33 H    0.887
                            31 H    0.827
     2   6 C    3.929 --     3 C    0.987     1 N    0.975    35 H    0.968
                            34 H    0.963
     3   6 C    3.983 --     4 C    1.028     2 C    0.987    37 H    0.958
                            36 H    0.957
     4   6 C    3.923 --     5 C    1.561    29 S    1.163     3 C    1.028
     5   6 C    3.982 --     4 C    1.561     6 C    1.314    38 H    0.962
     6   6 C    3.968 --     7 C    1.493     5 C    1.314    39 H    0.961
     7   6 C    3.952 --     6 C    1.493     8 C    1.173    29 S    1.114
     8   6 C    3.933 --     9 C    1.462     7 C    1.173    28 S    1.125
     9   6 C    3.976 --     8 C    1.462    10 C    1.329    40 H    0.956
    10   6 C    3.972 --    12 C    1.399     9 C    1.329    11 C    1.036
    11   6 C    3.987 --    10 C    1.036    41 H    0.976    43 H    0.954
                            42 H    0.954
    12   6 C    3.922 --    10 C    1.399    13 C    1.216    28 S    1.096
    13   6 C    3.950 --    14 C    1.374    12 C    1.216    27 S    1.129
    14   6 C    3.957 --    13 C    1.374    17 C    1.162    15 C    1.136
    15   6 C    3.939 --    16 N    2.732    14 C    1.136
    16   7 N    2.971 --    15 C    2.732
    17   6 C    3.973 --    20 C    1.391    14 C    1.162    18 C    1.131
    18   6 C    3.940 --    19 N    2.741    17 C    1.131
    19   7 N    2.969 --    18 C    2.741
    20   6 C    3.948 --    17 C    1.391    21 C    1.197    27 S    1.132
    21   6 C    3.938 --    22 C    1.435    20 C    1.197    26 S    1.107
    22   6 C    3.957 --    21 C    1.435    24 C    1.282    23 C    1.037
    23   6 C    3.988 --    22 C    1.037    46 H    0.976    44 H    0.954
                            45 H    0.954
    24   6 C    3.982 --    25 C    1.596    22 C    1.282    47 H    0.960
    25   6 C    3.929 --    24 C    1.596    26 S    1.202    48 H    0.965
    26  16 S    2.614 --    25 C    1.202    21 C    1.107
    27  16 S    2.662 --    20 C    1.132    13 C    1.129
    28  16 S    2.566 --     8 C    1.125    12 C    1.096
    29  16 S    2.595 --     4 C    1.163     7 C    1.114
    30  17 Cl   0.103
    31   1 H    0.910 --     1 N    0.827
    32   1 H    0.906 --     1 N    0.892
    33   1 H    0.917 --     1 N    0.887
    34   1 H    0.985 --     2 C    0.963
    35   1 H    0.990 --     2 C    0.968
    36   1 H    0.987 --     3 C    0.957
    37   1 H    0.990 --     3 C    0.958
    38   1 H    0.997 --     5 C    0.962
    39   1 H    0.999 --     6 C    0.961
    40   1 H    0.994 --     9 C    0.956
    41   1 H    0.992 --    11 C    0.976
    42   1 H    0.992 --    11 C    0.954
    43   1 H    0.992 --    11 C    0.954
    44   1 H    0.992 --    23 C    0.954
    45   1 H    0.992 --    23 C    0.954
    46   1 H    0.992 --    23 C    0.976
    47   1 H    0.994 --    24 C    0.960
    48   1 H    0.994 --    25 C    0.965
 ---------------------------------------------------------------------------

molecular dipole:
                 x           y           z       tot (Debye)
 q only:        3.421       4.859       4.260
   full:        3.464       3.948       3.974      16.740

           -------------------------------------------------
          | TOTAL ENERGY              -82.574697014104 Eh   |
          | GRADIENT NORM               0.000565687790 Eh/α |
          | HOMO-LUMO GAP               1.662734425336 eV   |
           -------------------------------------------------

 * finished run on 2023/01/24 at 14:56:31.899
