   * xtb version 6.5.1 (fef0646) compiled by 'conda@b96dff2e9fd6' on 2023-01-04
          program call               : xtb init.xyz --opt -c 1 -u 0 -P 16 --alpb water

   ID    Z sym.   atoms
    1    7 N      1
    2    6 C      2, 3, 5-20
    3    8 O      4
    4    1 H      21-36

      * Solvation model:               ALPB
        Solvent                        water
        Solvent mass                       1.8000E+01 g/mol
          :  Hamiltonian                  GFN2-xTB          :
 * total energy  :   -53.3869526 Eh     change       -0.4587903E-09 Eh
 * total energy  :   -53.3930362 Eh     change       -0.6083639E-02 Eh
 * total energy  :   -53.3943481 Eh     change       -0.1311914E-02 Eh
 * total energy  :   -53.3945613 Eh     change       -0.2132106E-03 Eh
 * total energy  :   -53.3947462 Eh     change       -0.1849156E-03 Eh
 * total energy  :   -53.3948357 Eh     change       -0.8949684E-04 Eh
 * total energy  :   -53.3949243 Eh     change       -0.8861448E-04 Eh
 * total energy  :   -53.3949854 Eh     change       -0.6105303E-04 Eh
 * total energy  :   -53.3950066 Eh     change       -0.2124096E-04 Eh
 * total energy  :   -53.3950241 Eh     change       -0.1745951E-04 Eh
 * total energy  :   -53.3950408 Eh     change       -0.1670139E-04 Eh
 * total energy  :   -53.3950551 Eh     change       -0.1425623E-04 Eh
 * total energy  :   -53.3950541 Eh     change        0.9210868E-06 Eh
 * total energy  :   -53.3950600 Eh     change       -0.5848646E-05 Eh
 * total energy  :   -53.3950612 Eh     change       -0.1204967E-05 Eh
   *** GEOMETRY OPTIMIZATION CONVERGED AFTER 15 ITERATIONS ***

 final structure:
================
36
 xtb: 6.5.1 (fef0646)
N            3.87053171479280        0.46578154291948       -1.59212177768826
C            2.82921012061755       -0.26466365152213       -0.83409940594266
C            3.33502212004920       -1.66532879178013       -0.50820885511553
O            4.50545643004735       -1.47796177057543        0.28462976800713
C            5.16081283302878       -2.56041844921147        0.78380189200177
C            6.25250045424451       -2.28419339241246        1.63245895205751
C            6.60768764860440       -0.95439970449519        2.00101196260490
C            7.66728907863960       -0.70804605006985        2.80618376573134
C            7.01510505211730       -3.36048310111321        2.14100749452736
C            6.67182660285657       -4.69662875547876        1.81636017082886
C            5.56904690505435       -4.92281031234426        0.99556031308113
C            4.82642813631703       -3.87471095723261        0.48436410768793
C            7.46454659339854       -5.75873097521200        2.34117647749722
C            8.53170742662515       -5.51059076241602        3.13475143490145
C            8.90176078345269       -4.17664650653435        3.48109177629117
C            9.99866917837484       -3.89855167987459        4.29747152542585
C           10.32884350898890       -2.59347472159484        4.61760158229014
C            9.57666792814243       -1.53828135235018        4.13646683748245
C            8.47140577771912       -1.76871889353237        3.31459223899522
C            8.12779433296781       -3.10136451474499        2.97804492326899
H            3.63158920613828        1.45898960822814       -1.68968110031853
H            3.99931532472800        0.05970219154256       -2.52680462375202
H            4.75784770658770        0.37905634405508       -1.07839807532484
H            1.90973147960770       -0.32889394809157       -1.41335235363413
H            2.63315831914921        0.26125340450375        0.10034206922033
H            3.58262985680784       -2.22094043185938       -1.41975330562017
H            2.57485990979860       -2.21960209451621        0.05027004733364
H            5.99776185662211       -0.14372250346614        1.63828876722700
H            7.92755737463402        0.30214952871471        3.08612904043857
H            5.29510258633622       -5.93837517941661        0.75075241717461
H            3.98512554673154       -4.10306431623287       -0.14936990234422
H            7.19107594693215       -6.77301741572695        2.08683871478582
H            9.12955483197498       -6.32094066106717        3.52741933541491
H           10.59178110149054       -4.71686275735462        4.68034798020960
H           11.18232846455530       -2.39905151106451        5.25097724378486
H            9.84127786186680       -0.52332745867370        4.39544856147078

          :  Hamiltonian                  GFN2-xTB          :
         :: total energy             -53.395061185000 Eh    ::
         :: gradient norm              0.000235807560 Eh/a0 ::
         :: HOMO-LUMO gap              2.314185059780 eV    ::
         :: SCC energy               -54.314578426173 Eh    ::
         :: -> dispersion             -0.039508301724 Eh    ::
         :: -> Gsolv                  -0.126339242157 Eh    ::
         :: repulsion energy           0.919536748932 Eh    ::

    * Orbital Energies and Occupations

         #    Occupation            Energy/Eh            Energy/eV
      -------------------------------------------------------------
         1        2.0000           -0.7294929             -19.8505
       ...           ...                  ...                  ...
        37        2.0000           -0.4628732             -12.5954
        38        2.0000           -0.4589202             -12.4879
        39        2.0000           -0.4567298             -12.4282
        40        2.0000           -0.4516756             -12.2907
        41        2.0000           -0.4404797             -11.9861
        42        2.0000           -0.4352821             -11.8446
        43        2.0000           -0.4286156             -11.6632
        44        2.0000           -0.4101275             -11.1601
        45        2.0000           -0.4089833             -11.1290
        46        2.0000           -0.4049604             -11.0195
        47        2.0000           -0.4044365             -11.0053
        48        2.0000           -0.3907635             -10.6332
        49        2.0000           -0.3584607              -9.7542 (HOMO)
        50                         -0.2734159              -7.4400 (LUMO)
        51                         -0.2411200              -6.5612
        52                         -0.2201733              -5.9912
        53                         -0.1997426              -5.4353
        54                         -0.1794065              -4.8819
        55                         -0.1248061              -3.3961
        56                         -0.0986047              -2.6832
        57                         -0.0545807              -1.4852
        58                         -0.0252120              -0.6861
        59                          0.0035927               0.0978
        60                          0.0538970               1.4666
       ...                                ...                  ...
        96                          0.7326075              19.9353
      -------------------------------------------------------------
                  HL-Gap            0.0850447 Eh            2.3142 eV

     #   Z          covCN         q      C6AA      α(0)
     1   7 N        3.486    -0.154    24.329     7.326
     2   6 C        3.731    -0.045    21.472     6.614
     3   6 C        3.689     0.049    19.937     6.391
     4   8 O        1.705    -0.271    18.490     5.806
     5   6 C        2.859     0.129    25.169     8.223
     6   6 C        2.982    -0.013    28.338     8.732
     7   6 C        2.913    -0.042    29.035     8.836
     8   6 C        2.914    -0.044    29.091     8.844
     9   6 C        2.997    -0.001    28.037     8.686
    10   6 C        2.981    -0.001    28.055     8.688
    11   6 C        2.921    -0.043    29.072     8.842
    12   6 C        2.911    -0.076    29.901     8.967
    13   6 C        2.913    -0.041    29.018     8.833
    14   6 C        2.913    -0.043    29.068     8.841
    15   6 C        2.982     0.007    27.853     8.657
    16   6 C        2.920    -0.043    29.071     8.842
    17   6 C        2.914    -0.036    28.888     8.813
    18   6 C        2.920    -0.045    29.108     8.847
    19   6 C        2.982     0.008    27.825     8.653
    20   6 C        2.998     0.001    27.998     8.680
    21   1 H        0.859     0.323     0.648     1.261
    22   1 H        0.859     0.314     0.674     1.287
    23   1 H        0.859     0.307     0.692     1.304
    24   1 H        0.925     0.131     1.528     1.933
    25   1 H        0.925     0.132     1.523     1.930
    26   1 H        0.924     0.079     1.992     2.207
    27   1 H        0.924     0.076     2.023     2.224
    28   1 H        0.926     0.068     2.106     2.269
    29   1 H        0.926     0.041     2.440     2.443
    30   1 H        0.926     0.037     2.495     2.470
    31   1 H        0.926     0.055     2.254     2.348
    32   1 H        0.926     0.031     2.579     2.511
    33   1 H        0.926     0.025     2.661     2.551
    34   1 H        0.926     0.025     2.656     2.549
    35   1 H        0.926     0.027     2.630     2.536
    36   1 H        0.926     0.034     2.525     2.485

Wiberg/Mayer (AO) data.
largest (>0.10) Wiberg bond orders for each atom

     #   Z sym  total        # sym  WBO       # sym  WBO       # sym  WBO
 ---------------------------------------------------------------------------
     1   7 N    3.654 --     2 C    0.976    22 H    0.887    23 H    0.887
                            21 H    0.883
     2   6 C    3.927 --     3 C    1.008     1 N    0.976    24 H    0.961
                            25 H    0.960
     3   6 C    3.931 --     2 C    1.008    27 H    0.962    26 H    0.961
                             4 O    0.954
     4   8 O    2.215 --     5 C    1.071     3 C    0.954
     5   6 C    3.917 --    12 C    1.379     6 C    1.276     4 O    1.071
     6   6 C    3.987 --     5 C    1.276     9 C    1.267     7 C    1.212
     7   6 C    3.988 --     8 C    1.645     6 C    1.212    28 H    0.964
     8   6 C    3.989 --     7 C    1.645    19 C    1.204    29 H    0.967
     9   6 C    3.990 --     6 C    1.267    20 C    1.251    10 C    1.244
    10   6 C    3.990 --    11 C    1.359     9 C    1.244    13 C    1.200
    11   6 C    3.956 --    12 C    1.443    10 C    1.359    30 H    0.969
    12   6 C    3.979 --    11 C    1.443     5 C    1.379    31 H    0.963
    13   6 C    3.991 --    14 C    1.655    10 C    1.200    32 H    0.968
    14   6 C    3.983 --    13 C    1.655    15 C    1.198    33 H    0.968
    15   6 C    3.990 --    16 C    1.360    20 C    1.252    14 C    1.198
    16   6 C    3.954 --    17 C    1.439    15 C    1.360    34 H    0.969
    17   6 C    3.985 --    18 C    1.447    16 C    1.439    35 H    0.971
    18   6 C    3.954 --    17 C    1.447    19 C    1.351    36 H    0.969
    19   6 C    3.989 --    18 C    1.351    20 C    1.255     8 C    1.204
    20   6 C    3.990 --    19 C    1.255    15 C    1.252     9 C    1.251
    21   1 H    0.895 --     1 N    0.883
    22   1 H    0.902 --     1 N    0.887
    23   1 H    0.906 --     1 N    0.887
    24   1 H    0.982 --     2 C    0.961
    25   1 H    0.983 --     2 C    0.960
    26   1 H    0.993 --     3 C    0.961
    27   1 H    0.993 --     3 C    0.962
    28   1 H    0.994 --     7 C    0.964
    29   1 H    0.997 --     8 C    0.967
    30   1 H    0.998 --    11 C    0.969
    31   1 H    0.996 --    12 C    0.963
    32   1 H    0.998 --    13 C    0.968
    33   1 H    0.998 --    14 C    0.968
    34   1 H    0.999 --    16 C    0.969
    35   1 H    0.999 --    17 C    0.971
    36   1 H    0.998 --    18 C    0.969
 ---------------------------------------------------------------------------

molecular dipole:
                 x           y           z       tot (Debye)
 q only:        6.176       1.039      -3.538
   full:        6.473       0.685      -3.387      18.649

           -------------------------------------------------
          | TOTAL ENERGY              -53.395061185000 Eh   |
          | GRADIENT NORM               0.000235807560 Eh/α |
          | HOMO-LUMO GAP               2.314185059780 eV   |
           -------------------------------------------------

 * finished run on 2023/01/24 at 14:58:06.777
