   * xtb version 6.5.1 (fef0646) compiled by 'conda@b96dff2e9fd6' on 2023-01-04
          program call               : xtb init.xyz --opt -c 1 -u 0 -P 16 --input xtb.inp

   ID    Z sym.   atoms
    1    7 N      1, 24, 26
    2    6 C      2-21, 23, 27
    3   16 S      22, 25, 28, 29
    4    1 H      30-49

          :  Hamiltonian                  GFN2-xTB          :
 * total energy  :   -78.6127009 Eh     change       -0.1392422E-08 Eh
 * total energy  :   -78.6289284 Eh     change       -0.1622753E-01 Eh
 * total energy  :   -78.6348748 Eh     change       -0.5946302E-02 Eh
 * total energy  :   -78.6368021 Eh     change       -0.1927303E-02 Eh
 * total energy  :   -78.6383217 Eh     change       -0.1519677E-02 Eh
 * total energy  :   -78.6393325 Eh     change       -0.1010812E-02 Eh
 * total energy  :   -78.6403534 Eh     change       -0.1020828E-02 Eh
 * total energy  :   -78.6413089 Eh     change       -0.9555067E-03 Eh
 * total energy  :   -78.6419766 Eh     change       -0.6677653E-03 Eh
 * total energy  :   -78.6424335 Eh     change       -0.4568184E-03 Eh
 * total energy  :   -78.6447395 Eh     change       -0.1027418E-04 Eh
 * total energy  :   -78.6447471 Eh     change       -0.7620374E-05 Eh
 * total energy  :   -78.6447548 Eh     change       -0.7654827E-05 Eh
 * total energy  :   -78.6447623 Eh     change       -0.7587157E-05 Eh
 * total energy  :   -78.6447692 Eh     change       -0.6806392E-05 Eh
 * total energy  :   -78.6447753 Eh     change       -0.6117687E-05 Eh
 * total energy  :   -78.6447813 Eh     change       -0.6036663E-05 Eh
 * total energy  :   -78.6447881 Eh     change       -0.6777247E-05 Eh
 * total energy  :   -78.6447907 Eh     change       -0.2595865E-05 Eh
   *** GEOMETRY OPTIMIZATION CONVERGED AFTER 44 ITERATIONS ***

 final structure:
================
49
 xtb: 6.5.1 (fef0646)
N            3.54398612060208       -0.69261644239246       -0.84674586667394
C            2.75065148997786       -0.19667922085102        0.31197297684805
C            3.58747327483277       -0.35054841059418        1.58679156922489
C            4.83046050512924        0.47118463075480        1.50369545014590
C            5.08606594353391        1.69971619390288        2.02582635305592
C            6.33788607325697        2.22494975799730        1.65573182634690
C            7.06540989390768        1.41238271312224        0.82605494940084
C            8.33923908833157        1.62918812080618        0.24622204790260
C            9.07739345977722        0.77571872755514       -0.54240284869330
C           10.30250046636245        1.30525416518698       -0.96404162101586
C           11.25181360600713        0.49818817140221       -1.78792677707239
C           10.50667652126992        2.59718787468839       -0.49579046142124
C           11.59190289225624        3.51615624176678       -0.70957229858589
C           12.56460936345574        3.40506278731409       -1.69262524367436
C           13.58988809668357        4.33764988595418       -1.85970142960146
C           13.73254796928987        5.46513853784140       -1.06481932943421
C           14.77671580883867        6.44032584225230       -1.22250002942354
C           15.49125594341661        6.80258615428587       -2.34916420604102
C           15.28075041434015        6.28600979792100       -3.73424567675611
C           16.44558459892068        7.80318634444337       -2.06769262038296
C           16.45774238313856        8.18711877491673       -0.76321014570913
S           15.28211732171126        7.36546889781482        0.16718082383267
C           12.76045970984198        5.61362981368088       -0.03983700407114
N           12.66933420718641        6.60596710730253        0.84210596859348
S           11.39217753116866        6.37355139011497        1.77859277458113
N           10.87543998112196        4.99859276804906        1.11117934833031
C           11.69858551380415        4.66301171354016        0.12005187911380
S            9.18899439824231        3.12627938038821        0.50667307130092
S            6.19243595453139       -0.07630265342363        0.52456291815024
H            3.15242505695223       -0.39638165389206       -1.74511140926203
H            3.60773287824449       -1.71612335344258       -0.82701622322846
H            4.52962877328781       -0.31943348746148       -0.72556315430731
H            1.81741134420409       -0.75518069630604        0.38412231307662
H            2.52497003600715        0.85774749884576        0.14799409910731
H            3.83106109241927       -1.40334444177602        1.74305063950400
H            2.99269896648769       -0.01384459166207        2.43559163952834
H            4.39731539129007        2.21988340445871        2.66707990135086
H            6.71275480766859        3.17652105960180        1.98404919242678
H            8.74611150985322       -0.21693574137416       -0.80160087259938
H           10.95997085329939       -0.54920883237707       -1.75850006292326
H           12.26760580037516        0.58524433950398       -1.40792788138658
H           11.23882034212778        0.82088331401422       -2.82919604945264
H           12.53503459019946        2.57904480728248       -2.38104275709817
H           14.31642755454104        4.14593583352492       -2.63097825693147
H           14.23154155098242        6.06163776110676       -3.91499175089293
H           15.86532548461382        5.38096219045017       -3.90350430718973
H           15.60964937267991        7.03176508316226       -4.45441362106156
H           17.09720806261546        8.21835032957357       -2.81583545506635
H           17.08750800121291        8.91805811102973       -0.29622238186458

          :  Hamiltonian                  GFN2-xTB          :
         :: total energy             -78.644790683464 Eh    ::
         :: gradient norm              0.000218745882 Eh/a0 ::
         :: HOMO-LUMO gap              1.329242147352 eV    ::
         :: SCC energy               -79.796902762850 Eh    ::
         :: -> dispersion             -0.065608240653 Eh    ::
         :: repulsion energy           1.152650959684 Eh    ::

    * Orbital Energies and Occupations

         #    Occupation            Energy/Eh            Energy/eV
      -------------------------------------------------------------
         1        2.0000           -0.8668132             -23.5872
       ...           ...                  ...                  ...
        61        2.0000           -0.5116142             -13.9217
        62        2.0000           -0.5105414             -13.8925
        63        2.0000           -0.5064469             -13.7811
        64        2.0000           -0.4983220             -13.5600
        65        2.0000           -0.4965052             -13.5106
        66        2.0000           -0.4804365             -13.0733
        67        2.0000           -0.4759876             -12.9523
        68        2.0000           -0.4740954             -12.9008
        69        2.0000           -0.4717582             -12.8372
        70        2.0000           -0.4650492             -12.6546
        71        2.0000           -0.4526179             -12.3164
        72        2.0000           -0.4410143             -12.0006
        73        2.0000           -0.4259089             -11.5896 (HOMO)
        74                         -0.3770602             -10.2603 (LUMO)
        75                         -0.3611912              -9.8285
        76                         -0.3298197              -8.9749
        77                         -0.3203571              -8.7174
        78                         -0.3029740              -8.2443
        79                         -0.2844629              -7.7406
        80                         -0.2820476              -7.6749
        81                         -0.2756247              -7.5001
        82                         -0.2668174              -7.2605
        83                         -0.2559731              -6.9654
        84                         -0.2477670              -6.7421
       ...                                ...                  ...
       156                          0.6658629              18.1191
      -------------------------------------------------------------
                  HL-Gap            0.0488488 Eh            1.3292 eV

     #   Z          covCN         q      C6AA      α(0)
     1   7 N        3.482    -0.150    24.243     7.313
     2   6 C        3.733    -0.030    21.199     6.572
     3   6 C        3.822    -0.086    22.118     6.693
     4   6 C        2.984    -0.010    28.255     8.719
     5   6 C        3.089    -0.043    28.950     8.820
     6   6 C        3.105    -0.054    29.188     8.852
     7   6 C        3.018     0.036    27.174     8.551
     8   6 C        3.018    -0.000    28.013     8.682
     9   6 C        3.100    -0.055    29.237     8.861
    10   6 C        3.124    -0.001    27.855     8.643
    11   6 C        3.755    -0.106    22.582     6.776
    12   6 C        2.996     0.022    27.511     8.604
    13   6 C        3.007    -0.009    28.234     8.716
    14   6 C        2.922    -0.039    28.980     8.828
    15   6 C        2.923    -0.045    29.128     8.851
    16   6 C        2.998     0.007    27.854     8.657
    17   6 C        2.998     0.007    27.862     8.659
    18   6 C        3.135     0.005    27.697     8.614
    19   6 C        3.755    -0.106    22.582     6.776
    20   6 C        3.119    -0.052    29.106     8.836
    21   6 C        2.934    -0.018    28.467     8.750
    22  16 S        2.334     0.009   140.701    19.964
    23   6 C        3.351     0.072    23.768     7.681
    24   7 N        1.867    -0.253    27.439     7.765
    25  16 S        2.663     0.364   127.096    18.974
    26   7 N        1.942    -0.268    27.803     7.819
    27   6 C        3.352     0.072    23.733     7.672
    28  16 S        2.435    -0.007   141.334    20.009
    29  16 S        2.365    -0.116   145.897    20.329
    30   1 H        0.859     0.260     0.845     1.440
    31   1 H        0.859     0.265     0.829     1.426
    32   1 H        0.887     0.285     0.757     1.362
    33   1 H        0.925     0.101     1.774     2.083
    34   1 H        0.924     0.105     1.744     2.065
    35   1 H        0.924     0.075     2.028     2.227
    36   1 H        0.925     0.096     1.826     2.113
    37   1 H        0.926     0.053     2.282     2.362
    38   1 H        0.926     0.061     2.186     2.312
    39   1 H        0.926     0.035     2.515     2.480
    40   1 H        0.925     0.051     2.313     2.378
    41   1 H        0.925     0.055     2.255     2.348
    42   1 H        0.925     0.051     2.303     2.373
    43   1 H        0.926     0.051     2.303     2.373
    44   1 H        0.926     0.054     2.274     2.358
    45   1 H        0.925     0.047     2.361     2.403
    46   1 H        0.924     0.052     2.295     2.369
    47   1 H        0.925     0.055     2.257     2.349
    48   1 H        0.926     0.047     2.359     2.402
    49   1 H        0.926     0.056     2.243     2.342

Wiberg/Mayer (AO) data.
largest (>0.10) Wiberg bond orders for each atom

     #   Z sym  total        # sym  WBO       # sym  WBO       # sym  WBO
 ---------------------------------------------------------------------------
     1   7 N    3.658 --     2 C    0.940    30 H    0.918    31 H    0.915
                            32 H    0.822
     2   6 C    3.901 --     3 C    0.991    34 H    0.968    33 H    0.968
                             1 N    0.940
     3   6 C    3.982 --     4 C    1.022     2 C    0.991    35 H    0.964
                            36 H    0.957
     4   6 C    3.894 --     5 C    1.594    29 S    1.086     3 C    1.022
     5   6 C    3.987 --     4 C    1.594     6 C    1.291    37 H    0.960
     6   6 C    3.964 --     7 C    1.509     5 C    1.291    38 H    0.957
     7   6 C    3.941 --     6 C    1.509     8 C    1.189    29 S    1.068
     8   6 C    3.931 --     9 C    1.445     7 C    1.189    28 S    1.119
     9   6 C    3.981 --     8 C    1.445    10 C    1.342    39 H    0.961
    10   6 C    3.949 --    12 C    1.420     9 C    1.342    11 C    1.026
    11   6 C    3.994 --    10 C    1.026    40 H    0.981    41 H    0.972
                            42 H    0.965
    12   6 C    3.934 --    10 C    1.420    28 S    1.152    13 C    1.149
    13   6 C    3.948 --    14 C    1.419    27 C    1.190    12 C    1.149
    14   6 C    3.973 --    13 C    1.419    15 C    1.376    43 H    0.962
    15   6 C    3.986 --    16 C    1.425    14 C    1.376    44 H    0.964
    16   6 C    3.943 --    15 C    1.425    23 C    1.187    17 C    1.145
    17   6 C    3.941 --    18 C    1.460    16 C    1.145    22 S    1.127
    18   6 C    3.948 --    17 C    1.460    20 C    1.289    19 C    1.027
    19   6 C    3.995 --    18 C    1.027    47 H    0.979    45 H    0.976
                            46 H    0.963
    20   6 C    3.980 --    21 C    1.585    18 C    1.289    48 H    0.964
    21   6 C    3.923 --    20 C    1.585    22 S    1.227    49 H    0.969
    22  16 S    2.660 --    21 C    1.227    17 C    1.127
    23   6 C    3.973 --    24 N    1.391    16 C    1.187    27 C    1.177
    24   7 N    3.108 --    25 S    1.442    23 C    1.391    26 N    0.158
    25  16 S    3.176 --    24 N    1.442    26 N    1.400
    26   7 N    3.124 --    25 S    1.400    27 C    1.389    24 N    0.158
    27   6 C    3.970 --    26 N    1.389    13 C    1.190    23 C    1.177
    28  16 S    2.669 --    12 C    1.152     8 C    1.119
    29  16 S    2.546 --     4 C    1.086     7 C    1.068
    30   1 H    0.932 --     1 N    0.918
    31   1 H    0.930 --     1 N    0.915
    32   1 H    0.918 --     1 N    0.822
    33   1 H    0.988 --     2 C    0.968
    34   1 H    0.989 --     2 C    0.968
    35   1 H    0.993 --     3 C    0.964
    36   1 H    0.990 --     3 C    0.957
    37   1 H    0.997 --     5 C    0.960
    38   1 H    0.996 --     6 C    0.957
    39   1 H    0.998 --     9 C    0.961
    40   1 H    0.997 --    11 C    0.981
    41   1 H    0.996 --    11 C    0.972
    42   1 H    0.995 --    11 C    0.965
    43   1 H    0.995 --    14 C    0.962
    44   1 H    0.995 --    15 C    0.964
    45   1 H    0.997 --    19 C    0.976
    46   1 H    0.995 --    19 C    0.963
    47   1 H    0.996 --    19 C    0.979
    48   1 H    0.997 --    20 C    0.964
    49   1 H    0.996 --    21 C    0.969
 ---------------------------------------------------------------------------

molecular dipole:
                 x           y           z       tot (Debye)
 q only:        9.529       0.725      -1.557
   full:       10.151       0.752      -1.911      26.325

           -------------------------------------------------
          | TOTAL ENERGY              -78.644790683464 Eh   |
          | GRADIENT NORM               0.000218745882 Eh/α |
          | HOMO-LUMO GAP               1.329242147352 eV   |
           -------------------------------------------------

 * finished run on 2023/01/23 at 19:23:40.031
