   * xtb version 6.5.1 (fef0646) compiled by 'conda@b96dff2e9fd6' on 2023-01-04
          program call               : xtb init.xyz --opt -c 0 -u 0 -P 16 --alpb water

   ID    Z sym.   atoms
    1    7 N      1, 6
    2    6 C      2-5, 7-18
    3   17 Cl     19
    4    1 H      20-40

      * Solvation model:               ALPB
        Solvent                        water
        Solvent mass                       1.8000E+01 g/mol
          :  Hamiltonian                  GFN2-xTB          :
 * total energy  :   -55.1377771 Eh     change       -0.2705470E-08 Eh
 * total energy  :   -55.1863819 Eh     change       -0.4860484E-01 Eh
 * total energy  :   -55.2284970 Eh     change       -0.4211509E-01 Eh
 * total energy  :   -55.2489178 Eh     change       -0.2042079E-01 Eh
 * total energy  :   -55.2602121 Eh     change       -0.1129423E-01 Eh
 * total energy  :   -55.2666778 Eh     change       -0.6465787E-02 Eh
 * total energy  :   -55.2694014 Eh     change       -0.2723581E-02 Eh
 * total energy  :   -55.2709243 Eh     change       -0.1522903E-02 Eh
 * total energy  :   -55.2717151 Eh     change       -0.7907595E-03 Eh
 * total energy  :   -55.2724660 Eh     change       -0.7508620E-03 Eh
 * total energy  :   -55.2799435 Eh     change       -0.1553382E-04 Eh
 * total energy  :   -55.2799616 Eh     change       -0.1808748E-04 Eh
 * total energy  :   -55.2799854 Eh     change       -0.2380593E-04 Eh
 * total energy  :   -55.2800138 Eh     change       -0.2840107E-04 Eh
 * total energy  :   -55.2800380 Eh     change       -0.2418122E-04 Eh
 * total energy  :   -55.2800553 Eh     change       -0.1731654E-04 Eh
 * total energy  :   -55.2800673 Eh     change       -0.1193355E-04 Eh
 * total energy  :   -55.2800770 Eh     change       -0.9719948E-05 Eh
 * total energy  :   -55.2800801 Eh     change       -0.3125563E-05 Eh
   *** GEOMETRY OPTIMIZATION CONVERGED AFTER 68 ITERATIONS ***

 final structure:
================
40
 xtb: 6.5.1 (fef0646)
N           13.64977606607484        2.16293139309862        1.59428735531974
C           14.70148282705167        2.42775794104132        0.58136718797198
C           14.09779171345610        3.00337492839777       -0.69369686973320
C           13.62565213001935        4.44852517191840       -0.53200729901000
C           12.96151809435122        4.96757562838589       -1.81268073889245
N           11.71462823057848        4.27434222885087       -2.06515596370112
C           11.48777054132187        3.61330383475240       -3.35083008609885
C            9.92233403536380        3.25322075000560       -3.27049955591908
C           10.12829859363424        1.86456169835413       -2.79787835540700
C           10.65339408107342        0.99642140569002       -3.72370459418375
C           12.09412889995071        1.13929772451407       -3.72188748800084
C           12.43397895199964        2.43604291050297       -3.55945675988684
C           10.52509312800099        4.75850674956652       -1.56540016593526
C            9.42481182611210        4.21264723794086       -2.24153885870504
C            8.13783457257975        4.53877706910431       -1.88731507848361
C            7.93775548997262        5.43655250837216       -0.84258551097975
C            9.02162637442201        5.97717435325090       -0.17328755005800
C           10.32492873649709        5.64649369519258       -0.51812365509919
Cl           0.05956237852827        1.75712089288944       -0.91851225337115
H           14.05632722156289        1.77857951354281        2.45430377756553
H           12.96532627574261        1.49389633955391        1.22323902001153
H           13.15397536000253        3.03189530556335        1.82201254310970
H           15.20924011268905        1.49162976578220        0.35264626741012
H           15.42624096659783        3.12790799854812        0.99631755234607
H           13.26133563032685        2.38853608301950       -1.02891298817645
H           14.85611845368320        2.96995140850100       -1.47542799201266
H           14.47213471825064        5.09518222734882       -0.29835506182321
H           12.89131245390636        4.53353059674473        0.26842737458502
H           13.62589773503831        4.81793710012572       -2.66521783922766
H           12.77458263148753        6.04475214594590       -1.72134194471671
H           11.66503447209232        4.33751120388881       -4.16856951146691
H            9.43262240822733        3.31933507322687       -4.24150170698933
H           10.60541574080165        1.85305847270162       -1.82117575988770
H           10.16708284632878        0.82278224677910       -4.67583544875163
H           12.80860541528518        0.38771303535554       -4.02361699169765
H           13.46559845607869        2.72901334619003       -3.70034103654122
H            7.29439900890519        4.11347823082527       -2.41331723072350
H            6.93178304561198        5.71012363918428       -0.55881857780777
H            8.84904446907449        6.67580053538564        0.63251131715132
H           11.14761590748658        6.09896761016322        0.01117047785520

          :  Hamiltonian                  GFN2-xTB          :
         :: total energy             -55.280080115473 Eh    ::
         :: gradient norm              0.000201202289 Eh/a0 ::
         :: HOMO-LUMO gap              1.897273266136 eV    ::
         :: SCC energy               -56.095940479442 Eh    ::
         :: -> dispersion             -0.039603339690 Eh    ::
         :: -> Gsolv                  -0.201310950063 Eh    ::
         :: repulsion energy           0.815007360611 Eh    ::

    * Orbital Energies and Occupations

         #    Occupation            Energy/Eh            Energy/eV
      -------------------------------------------------------------
         1        2.0000           -0.9932143             -27.0267
       ...           ...                  ...                  ...
        39        2.0000           -0.4419230             -12.0253
        40        2.0000           -0.4363161             -11.8728
        41        2.0000           -0.4345820             -11.8256
        42        2.0000           -0.4283045             -11.6548
        43        2.0000           -0.4174837             -11.3603
        44        2.0000           -0.4147810             -11.2868
        45        2.0000           -0.4069359             -11.0733
        46        2.0000           -0.3958772             -10.7724
        47        2.0000           -0.3958177             -10.7707
        48        2.0000           -0.3958111             -10.7706
        49        2.0000           -0.3940135             -10.7217
        50        2.0000           -0.3467753              -9.4362
        51        2.0000           -0.3375058              -9.1840 (HOMO)
        52                         -0.2677823              -7.2867 (LUMO)
        53                         -0.2150951              -5.8530
        54                         -0.2078584              -5.6561
        55                         -0.2039569              -5.5500
        56                         -0.0847725              -2.3068
        57                         -0.0453535              -1.2341
        58                         -0.0045039              -0.1226
        59                          0.0075093               0.2043
        60                          0.0533077               1.4506
        61                          0.0585731               1.5939
        62                          0.0693945               1.8883
       ...                                ...                  ...
       102                          0.6972591              18.9734
      -------------------------------------------------------------
                  HL-Gap            0.0697235 Eh            1.8973 eV

     #   Z          covCN         q      C6AA      α(0)
     1   7 N        3.484    -0.156    24.363     7.331
     2   6 C        3.731    -0.041    21.397     6.603
     3   6 C        3.803    -0.085    22.113     6.695
     4   6 C        3.802    -0.082    22.066     6.688
     5   6 C        3.742    -0.006    20.759     6.500
     6   7 N        2.762    -0.112    23.443     7.191
     7   6 C        3.888     0.041    19.830     6.331
     8   6 C        3.894    -0.009    20.683     6.465
     9   6 C        3.017    -0.052    29.259     8.873
    10   6 C        2.956    -0.074    29.839     8.960
    11   6 C        2.947    -0.026    28.651     8.779
    12   6 C        2.945    -0.052    29.296     8.877
    13   6 C        2.980     0.058    26.686     8.474
    14   6 C        3.015    -0.023    28.557     8.766
    15   6 C        2.915    -0.040    28.991     8.829
    16   6 C        2.921    -0.052    29.282     8.874
    17   6 C        2.922    -0.041    29.011     8.833
    18   6 C        2.914    -0.070    29.746     8.943
    19  17 Cl       0.000    -1.000   127.012    17.152
    20   1 H        0.859     0.316     0.668     1.280
    21   1 H        0.859     0.304     0.702     1.313
    22   1 H        0.859     0.299     0.716     1.326
    23   1 H        0.925     0.113     1.669     2.020
    24   1 H        0.925     0.113     1.674     2.023
    25   1 H        0.924     0.071     2.078     2.254
    26   1 H        0.925     0.069     2.094     2.263
    27   1 H        0.924     0.061     2.190     2.314
    28   1 H        0.925     0.062     2.172     2.305
    29   1 H        0.924     0.051     2.302     2.373
    30   1 H        0.924     0.037     2.488     2.467
    31   1 H        0.922     0.021     2.713     2.576
    32   1 H        0.925     0.029     2.599     2.521
    33   1 H        0.925     0.047     2.352     2.398
    34   1 H        0.925     0.018     2.758     2.597
    35   1 H        0.926     0.055     2.255     2.348
    36   1 H        0.925     0.065     2.136     2.285
    37   1 H        0.926     0.007     2.943     2.683
    38   1 H        0.926     0.004     2.981     2.700
    39   1 H        0.926     0.026     2.637     2.540
    40   1 H        0.926     0.049     2.338     2.391

Wiberg/Mayer (AO) data.
largest (>0.10) Wiberg bond orders for each atom

     #   Z sym  total        # sym  WBO       # sym  WBO       # sym  WBO
 ---------------------------------------------------------------------------
     1   7 N    3.657 --     2 C    0.963    21 H    0.892    22 H    0.891
                            20 H    0.887
     2   6 C    3.925 --     3 C    1.012    23 H    0.966    24 H    0.965
                             1 N    0.963
     3   6 C    3.989 --     2 C    1.012     4 C    1.008    26 H    0.968
                            25 H    0.966
     4   6 C    3.991 --     3 C    1.008     5 C    0.996    27 H    0.974
                            28 H    0.968
     5   6 C    3.971 --     4 C    0.996     6 N    0.987    29 H    0.969
                            30 H    0.967
     6   7 N    3.366 --    13 C    1.145     5 C    0.987     7 C    0.973
     7   6 C    3.978 --    12 C    1.021     6 N    0.973    31 H    0.948
                             8 C    0.897
     8   6 C    3.991 --     9 C    1.031    14 C    1.006    32 H    0.963
                             7 C    0.897
     9   6 C    3.961 --    10 C    1.744     8 C    1.031    33 H    0.962
                            12 C    0.117
    10   6 C    3.950 --     9 C    1.744    11 C    1.125    34 H    0.947
    11   6 C    3.979 --    12 C    1.803    10 C    1.125    35 H    0.960
    12   6 C    3.982 --    11 C    1.803     7 C    1.021    36 H    0.955
                             9 C    0.117
    13   6 C    3.976 --    18 C    1.367    14 C    1.290     6 N    1.145
    14   6 C    3.985 --    15 C    1.465    13 C    1.290     8 C    1.006
                            17 C    0.101
    15   6 C    3.991 --    14 C    1.465    16 C    1.399    37 H    0.971
    16   6 C    3.987 --    17 C    1.451    15 C    1.399    38 H    0.973
    17   6 C    3.990 --    16 C    1.451    18 C    1.429    39 H    0.972
                            14 C    0.101
    18   6 C    3.982 --    17 C    1.429    13 C    1.367    40 H    0.965
    19  17 Cl   0.000
    20   1 H    0.900 --     1 N    0.887
    21   1 H    0.908 --     1 N    0.892
    22   1 H    0.911 --     1 N    0.891
    23   1 H    0.987 --     2 C    0.966
    24   1 H    0.987 --     2 C    0.965
    25   1 H    0.995 --     3 C    0.966
    26   1 H    0.995 --     3 C    0.968
    27   1 H    0.996 --     4 C    0.974
    28   1 H    0.996 --     4 C    0.968
    29   1 H    0.997 --     5 C    0.969
    30   1 H    0.998 --     5 C    0.967
    31   1 H    1.000 --     7 C    0.948
    32   1 H    0.999 --     8 C    0.963
    33   1 H    0.998 --     9 C    0.962
    34   1 H    0.999 --    10 C    0.947
    35   1 H    0.996 --    11 C    0.960
    36   1 H    0.995 --    12 C    0.955
    37   1 H    0.999 --    15 C    0.971
    38   1 H    1.000 --    16 C    0.973
    39   1 H    0.998 --    17 C    0.972
    40   1 H    0.997 --    18 C    0.965
 ---------------------------------------------------------------------------

molecular dipole:
                 x           y           z       tot (Debye)
 q only:       27.313       0.858       4.386
   full:       26.831       1.152       4.046      69.031

           -------------------------------------------------
          | TOTAL ENERGY              -55.280080115473 Eh   |
          | GRADIENT NORM               0.000201202289 Eh/α |
          | HOMO-LUMO GAP               1.897273266136 eV   |
           -------------------------------------------------

 * finished run on 2023/01/24 at 16:42:07.217
