   * xtb version 6.5.1 (fef0646) compiled by 'conda@b96dff2e9fd6' on 2023-01-04
          program call               : xtb init.xyz --opt -c 0 -u 0 -P 16 --input xtb.inp

   ID    Z sym.   atoms
    1    7 N      1, 6
    2    6 C      2-5, 7-18
    3   17 Cl     19
    4    1 H      20-40

          :  Hamiltonian                  GFN2-xTB          :
 * total energy  :   -55.0569880 Eh     change       -0.4786003E-08 Eh
 * total energy  :   -55.0804377 Eh     change       -0.2344967E-01 Eh
 * total energy  :   -55.0912009 Eh     change       -0.1076323E-01 Eh
 * total energy  :   -55.0957023 Eh     change       -0.4501371E-02 Eh
 * total energy  :   -55.0986804 Eh     change       -0.2978106E-02 Eh
 * total energy  :   -55.1009198 Eh     change       -0.2239397E-02 Eh
 * total energy  :   -55.1027844 Eh     change       -0.1864635E-02 Eh
 * total energy  :   -55.1045147 Eh     change       -0.1730322E-02 Eh
 * total energy  :   -55.1061389 Eh     change       -0.1624185E-02 Eh
 * total energy  :   -55.1078543 Eh     change       -0.1715358E-02 Eh
 * total energy  :   -55.2490249 Eh     change       -0.2022507E-04 Eh
 * total energy  :   -55.2490662 Eh     change       -0.4128340E-04 Eh
 * total energy  :   -55.2490861 Eh     change       -0.1994535E-04 Eh
 * total energy  :   -55.2490998 Eh     change       -0.1372247E-04 Eh
 * total energy  :   -55.2491131 Eh     change       -0.1329858E-04 Eh
 * total energy  :   -55.2491199 Eh     change       -0.6770791E-05 Eh
 * total energy  :   -55.2491258 Eh     change       -0.5911840E-05 Eh
 * total energy  :   -55.2491268 Eh     change       -0.1038834E-05 Eh
 * total energy  :   -55.2491314 Eh     change       -0.4514860E-05 Eh
   *** GEOMETRY OPTIMIZATION CONVERGED AFTER 89 ITERATIONS ***

 final structure:
================
40
 xtb: 6.5.1 (fef0646)
N           10.99273419170084        4.67278161992675        0.43091803783585
C           12.40272755541197        4.87972138454420        0.74480086341172
C           13.26116278806415        3.61545350273234        0.62762157719305
C           13.41574161077682        3.14998381914344       -0.82835438187620
C           13.00270001103620        1.68545531996654       -1.03921126464843
N           11.68834183937527        1.41048970757972       -0.50993447356166
C           11.47876458259293        0.27332624697011        0.38423141617864
C            9.87759434616597        0.22079759425389        0.49818504888424
C            9.80227746985500        0.95091588348035        1.78583549141303
C           10.27834436098437        0.26705170491641        2.87712239918537
C           11.71070668810330        0.45325191274812        2.94390166648846
C           12.23794332645683        0.43152650078584        1.70068313113500
C           10.54479257877396        1.66364943079930       -1.23925315566811
C            9.44025788148137        0.98758754852152       -0.70475856877601
C            8.18625151919722        1.13001452743813       -1.24938351385829
C            8.02801555403769        1.95256903756835       -2.35936418358561
C            9.11812318044791        2.61344387251660       -2.89636432443208
C           10.38715628871153        2.48099077533121       -2.34911611046053
Cl           9.58766643228759        7.22913882491402        0.44099748555701
H           10.24629589468216        6.01811393288698        0.44349537393048
H           10.55973881691771        4.05002559539910        1.10533112628652
H           10.87406300446481        4.26484565992749       -0.49232281510323
H           12.45633762745967        5.26801416583896        1.76407740663950
H           12.78251496883281        5.65067969070585        0.07011587070559
H           12.79104172276416        2.82498288896921        1.21747159696290
H           14.23868132656997        3.81614904488963        1.06683334328587
H           14.45027712263550        3.25815323995351       -1.15634264199982
H           12.80949576956798        3.78560502638396       -1.47506428042172
H           13.72021293512433        1.03450515889001       -0.53582331561199
H           13.03924734073363        1.45483247249455       -2.11360098963778
H           11.85585022191646       -0.64500597117124       -0.10708132838624
H            9.50748639868717       -0.80226461181233        0.55561009271841
H           10.17150630870031        1.97008619829757        1.68145411318004
H            9.87724430355259       -0.69372648706188        3.17058778283500
H           12.32705272886270        0.40484832391911        3.83067035813345
H           13.31506442882336        0.39918677124699        1.58807495270717
H            7.34285531392928        0.60684889259965       -0.82434551316113
H            7.05251558982722        2.07303905543804       -2.80404110972371
H            8.98619125011735        3.24526195191565       -3.76212710337550
H           11.22253471962781        2.99244978808582       -2.80179006020671

          :  Hamiltonian                  GFN2-xTB          :
         :: total energy             -55.249131360871 Eh    ::
         :: gradient norm              0.000609774460 Eh/a0 ::
         :: HOMO-LUMO gap              1.872670475686 eV    ::
         :: SCC energy               -56.053946578124 Eh    ::
         :: -> dispersion             -0.044975963041 Eh    ::
         :: repulsion energy           0.803514597713 Eh    ::

    * Orbital Energies and Occupations

         #    Occupation            Energy/Eh            Energy/eV
      -------------------------------------------------------------
         1        2.0000           -1.0092925             -27.4642
       ...           ...                  ...                  ...
        39        2.0000           -0.4536343             -12.3440
        40        2.0000           -0.4519468             -12.2981
        41        2.0000           -0.4474855             -12.1767
        42        2.0000           -0.4366357             -11.8815
        43        2.0000           -0.4270943             -11.6218
        44        2.0000           -0.4251177             -11.5680
        45        2.0000           -0.4185316             -11.3888
        46        2.0000           -0.4025301             -10.9534
        47        2.0000           -0.3934469             -10.7062
        48        2.0000           -0.3865480             -10.5185
        49        2.0000           -0.3865255             -10.5179
        50        2.0000           -0.3574799              -9.7275
        51        2.0000           -0.3511217              -9.5545 (HOMO)
        52                         -0.2823023              -7.6818 (LUMO)
        53                         -0.2248410              -6.1182
        54                         -0.2196443              -5.9768
        55                         -0.2118479              -5.7647
        56                         -0.0924823              -2.5166
        57                         -0.0503638              -1.3705
        58                         -0.0183895              -0.5004
        59                         -0.0072896              -0.1984
        60                          0.0271989               0.7401
        61                          0.0448354               1.2200
        62                          0.0527415               1.4352
       ...                                ...                  ...
       102                          0.6892673              18.7559
      -------------------------------------------------------------
                  HL-Gap            0.0688194 Eh            1.8727 eV

     #   Z          covCN         q      C6AA      α(0)
     1   7 N        2.716    -0.304    27.826     7.834
     2   6 C        3.732     0.001    20.648     6.486
     3   6 C        3.799    -0.073    21.891     6.662
     4   6 C        3.801    -0.067    21.777     6.644
     5   6 C        3.740     0.008    20.517     6.463
     6   7 N        2.762    -0.122    23.660     7.224
     7   6 C        3.884     0.046    19.756     6.319
     8   6 C        3.894    -0.006    20.636     6.458
     9   6 C        3.015    -0.042    29.016     8.836
    10   6 C        2.959    -0.065    29.618     8.926
    11   6 C        2.949    -0.020    28.499     8.756
    12   6 C        2.947    -0.049    29.219     8.866
    13   6 C        2.978     0.056    26.728     8.480
    14   6 C        3.015    -0.021    28.508     8.758
    15   6 C        2.916    -0.035    28.868     8.811
    16   6 C        2.921    -0.044    29.102     8.847
    17   6 C        2.922    -0.033    28.815     8.803
    18   6 C        2.914    -0.066    29.644     8.928
    19  17 Cl       0.837    -0.492   115.402    16.434
    20   1 H        0.923     0.327     0.634     1.245
    21   1 H        0.860     0.168     1.287     1.777
    22   1 H        0.860     0.176     1.237     1.742
    23   1 H        0.924     0.051     2.306     2.375
    24   1 H        0.924     0.054     2.275     2.359
    25   1 H        0.924     0.049     2.334     2.389
    26   1 H        0.924     0.038     2.471     2.458
    27   1 H        0.924     0.038     2.481     2.463
    28   1 H        0.924     0.044     2.390     2.418
    29   1 H        0.924     0.038     2.478     2.461
    30   1 H        0.923     0.030     2.591     2.517
    31   1 H        0.922     0.019     2.755     2.596
    32   1 H        0.925     0.041     2.430     2.438
    33   1 H        0.925     0.025     2.658     2.550
    34   1 H        0.925     0.036     2.498     2.472
    35   1 H        0.926     0.040     2.455     2.450
    36   1 H        0.925     0.039     2.469     2.457
    37   1 H        0.926     0.031     2.577     2.510
    38   1 H        0.926     0.031     2.577     2.511
    39   1 H        0.926     0.031     2.566     2.505
    40   1 H        0.926     0.023     2.692     2.566

Wiberg/Mayer (AO) data.
largest (>0.10) Wiberg bond orders for each atom

     #   Z sym  total        # sym  WBO       # sym  WBO       # sym  WBO
 ---------------------------------------------------------------------------
     1   7 N    3.261 --     2 C    1.011    21 H    0.952    22 H    0.945
                            20 H    0.221
     2   6 C    3.975 --     1 N    1.011     3 C    1.000    23 H    0.974
                            24 H    0.973
     3   6 C    3.995 --     4 C    1.004     2 C    1.000    26 H    0.978
                            25 H    0.966
     4   6 C    3.994 --     3 C    1.004     5 C    0.996    27 H    0.979
                            28 H    0.970
     5   6 C    3.981 --     6 N    0.998     4 C    0.996    29 H    0.971
                            30 H    0.966
     6   7 N    3.365 --    13 C    1.132     5 C    0.998     7 C    0.974
     7   6 C    3.976 --    12 C    1.018     6 N    0.974    31 H    0.948
                             8 C    0.902
     8   6 C    3.989 --     9 C    1.025    14 C    1.005    32 H    0.962
                             7 C    0.902
     9   6 C    3.957 --    10 C    1.745     8 C    1.025    33 H    0.958
                            12 C    0.117
    10   6 C    3.953 --     9 C    1.745    11 C    1.128    34 H    0.946
    11   6 C    3.982 --    12 C    1.802    10 C    1.128    35 H    0.961
    12   6 C    3.984 --    11 C    1.802     7 C    1.018    36 H    0.958
                             9 C    0.117
    13   6 C    3.972 --    18 C    1.367    14 C    1.294     6 N    1.132
    14   6 C    3.983 --    15 C    1.461    13 C    1.294     8 C    1.005
                            17 C    0.102
    15   6 C    3.991 --    14 C    1.461    16 C    1.403    37 H    0.970
    16   6 C    3.987 --    17 C    1.451    15 C    1.403    38 H    0.972
    17   6 C    3.991 --    16 C    1.451    18 C    1.427    39 H    0.971
                            14 C    0.102
    18   6 C    3.984 --    17 C    1.427    13 C    1.367    40 H    0.965
    19  17 Cl   0.759 --    20 H    0.669
    20   1 H    0.893 --    19 Cl   0.669     1 N    0.221
    21   1 H    0.972 --     1 N    0.952
    22   1 H    0.969 --     1 N    0.945
    23   1 H    0.997 --     2 C    0.974
    24   1 H    0.997 --     2 C    0.973
    25   1 H    0.998 --     3 C    0.966
    26   1 H    0.998 --     3 C    0.978
    27   1 H    0.998 --     4 C    0.979
    28   1 H    0.998 --     4 C    0.970
    29   1 H    0.998 --     5 C    0.971
    30   1 H    0.999 --     5 C    0.966
    31   1 H    1.000 --     7 C    0.948
    32   1 H    0.998 --     8 C    0.962
    33   1 H    0.999 --     9 C    0.958
    34   1 H    0.998 --    10 C    0.946
    35   1 H    0.997 --    11 C    0.961
    36   1 H    0.998 --    12 C    0.958
    37   1 H    0.999 --    15 C    0.970
    38   1 H    0.999 --    16 C    0.972
    39   1 H    0.998 --    17 C    0.971
    40   1 H    0.999 --    18 C    0.965
 ---------------------------------------------------------------------------

molecular dipole:
                 x           y           z       tot (Debye)
 q only:        1.611      -2.066       0.027
   full:        1.687      -2.308      -0.164       7.279

           -------------------------------------------------
          | TOTAL ENERGY              -55.249131360871 Eh   |
          | GRADIENT NORM               0.000609774460 Eh/α |
          | HOMO-LUMO GAP               1.872670475686 eV   |
           -------------------------------------------------

 * finished run on 2023/01/23 at 20:46:59.137
