   * xtb version 6.5.1 (fef0646) compiled by 'conda@b96dff2e9fd6' on 2023-01-04
          program call               : xtb init.xyz --opt -c 0 -u 0 -P 16 --alpb water

   ID    Z sym.   atoms
    1    7 N      1
    2    6 C      2-19
    3   16 S      20-23
    4   17 Cl     24
    5    1 H      25-40

      * Solvation model:               ALPB
        Solvent                        water
        Solvent mass                       1.8000E+01 g/mol
          :  Hamiltonian                  GFN2-xTB          :
 * total energy  :   -67.1585524 Eh     change       -0.5563692E-09 Eh
 * total energy  :   -67.1662429 Eh     change       -0.7690493E-02 Eh
 * total energy  :   -67.1688103 Eh     change       -0.2567378E-02 Eh
 * total energy  :   -67.1694188 Eh     change       -0.6084586E-03 Eh
 * total energy  :   -67.1699160 Eh     change       -0.4972166E-03 Eh
 * total energy  :   -67.1702985 Eh     change       -0.3825412E-03 Eh
 * total energy  :   -67.1707681 Eh     change       -0.4695249E-03 Eh
 * total energy  :   -67.1711980 Eh     change       -0.4299157E-03 Eh
 * total energy  :   -67.1714531 Eh     change       -0.2551429E-03 Eh
 * total energy  :   -67.1716548 Eh     change       -0.2016547E-03 Eh
 * total energy  :   -67.1762521 Eh     change       -0.3154819E-04 Eh
 * total energy  :   -67.1762701 Eh     change       -0.1806092E-04 Eh
 * total energy  :   -67.1762838 Eh     change       -0.1365667E-04 Eh
 * total energy  :   -67.1762981 Eh     change       -0.1432328E-04 Eh
 * total energy  :   -67.1763139 Eh     change       -0.1576723E-04 Eh
 * total energy  :   -67.1763247 Eh     change       -0.1080992E-04 Eh
 * total energy  :   -67.1763354 Eh     change       -0.1074809E-04 Eh
 * total energy  :   -67.1763418 Eh     change       -0.6326429E-05 Eh
 * total energy  :   -67.1763448 Eh     change       -0.2997665E-05 Eh
   *** GEOMETRY OPTIMIZATION CONVERGED AFTER 69 ITERATIONS ***

 final structure:
================
40
 xtb: 6.5.1 (fef0646)
N            3.22354438120801       -0.31207161144673        0.56353053391578
C            2.73895968745454        0.95953687001492        1.12729641856436
C            3.79993103996156        1.60416728526832        2.02683767031780
C            4.96990272022703        2.09024420340760        1.24166992216491
C            5.21759316635100        3.34653415571130        0.77535229420898
C            6.40052245179501        3.44260826123588        0.02087414737361
C            7.06937436712469        2.25114940068594       -0.09954145696117
C            8.28198304712537        1.97099491543904       -0.79025578861028
C            8.95158370576776        0.77424267479823       -0.88900943724335
C           10.12008408136377        0.85410873342403       -1.65240419623239
C           10.36318049948035        2.11177262312943       -2.15216621792829
C           11.44514422335460        2.54895137979007       -2.96338786342471
C           11.67214373640205        3.80152887515449       -3.48387871695042
C           12.84271706587911        3.88395726020563       -4.24402927640384
C           13.53264310085883        2.69770234409195       -4.31710994879085
C           14.75657754703507        2.42517906865991       -4.99314627071102
C           15.45985003367242        1.24847215207196       -5.04605133958924
C           16.63922989553462        1.34451495180728       -5.80749337203407
C           16.82970218543202        2.58463180779453       -6.32941811392792
S           15.56728494605065        3.67130080203407       -5.90245387949392
S           12.71211986019496        1.44468760611026       -3.42728067239610
S            9.11682365138231        3.22823846596457       -1.66467255475114
S            6.22648345572001        0.99086901119054        0.74541431105614
Cl           1.27114822067672       -1.23880479260155       -1.58250431130531
H            2.54320306998809       -0.67593982392523       -0.15129142749954
H            3.33934041653473       -1.02189623543552        1.28993280481540
H            4.12303535978670       -0.17635560911120        0.08984615930196
H            1.83423921183028        0.76483211712587        1.70047177098138
H            2.48486524802131        1.62756132904074        0.30482902213463
H            4.13136275378340        0.88348888156373        2.77403842671577
H            3.34954355918956        2.45248054612859        2.54022453291699
H            4.57340297550947        4.18533011513166        0.96642369923915
H            6.76461818554422        4.35085969361909       -0.42618253098870
H            8.60293589297055       -0.12990520196454       -0.42208905046579
H           10.77676397985357        0.02395992360311       -1.84316181346679
H           11.00425955797697        4.62749801019887       -3.31444264704795
H           13.18497836879576        4.78059577422986       -4.72952169746036
H           15.12943258494707        0.35339394791981       -4.54998628695768
H           17.31761973196483        0.52553571157959       -5.95967946513980
H           17.63388203323517        2.93744437639309       -6.94251337790121

          :  Hamiltonian                  GFN2-xTB          :
         :: total energy             -67.176344769146 Eh    ::
         :: gradient norm              0.000405816221 Eh/a0 ::
         :: HOMO-LUMO gap              1.771428088782 eV    ::
         :: SCC energy               -68.112092008979 Eh    ::
         :: -> dispersion             -0.049961502251 Eh    ::
         :: -> Gsolv                  -0.071587075518 Eh    ::
         :: repulsion energy           0.936430591969 Eh    ::

    * Orbital Energies and Occupations

         #    Occupation            Energy/Eh            Energy/eV
      -------------------------------------------------------------
         1        2.0000           -1.0042755             -27.3277
       ...           ...                  ...                  ...
        50        2.0000           -0.4451241             -12.1124
        51        2.0000           -0.4432777             -12.0622
        52        2.0000           -0.4390331             -11.9467
        53        2.0000           -0.4140859             -11.2679
        54        2.0000           -0.4045739             -11.0090
        55        2.0000           -0.4037304             -10.9861
        56        2.0000           -0.4018799             -10.9357
        57        2.0000           -0.4015460             -10.9266
        58        2.0000           -0.3989321             -10.8555
        59        2.0000           -0.3982738             -10.8376
        60        2.0000           -0.3981762             -10.8349
        61        2.0000           -0.3824440             -10.4068
        62        2.0000           -0.3572773              -9.7220 (HOMO)
        63                         -0.2921785              -7.9506 (LUMO)
        64                         -0.2636775              -7.1750
        65                         -0.2342435              -6.3741
        66                         -0.2212156              -6.0196
        67                         -0.2165095              -5.8915
        68                         -0.2086825              -5.6785
        69                         -0.2068135              -5.6277
        70                         -0.2001764              -5.4471
        71                         -0.1837354              -4.9997
        72                         -0.1646582              -4.4806
        73                         -0.1533775              -4.1736
       ...                                ...                  ...
       137                          0.7025207              19.1166
      -------------------------------------------------------------
                  HL-Gap            0.0650988 Eh            1.7714 eV

     #   Z          covCN         q      C6AA      α(0)
     1   7 N        3.483    -0.164    24.535     7.357
     2   6 C        3.733    -0.025    21.114     6.558
     3   6 C        3.825    -0.092    22.232     6.710
     4   6 C        2.985     0.028    27.377     8.583
     5   6 C        3.107    -0.059    29.314     8.871
     6   6 C        3.112    -0.053    29.164     8.847
     7   6 C        3.021     0.010    27.771     8.644
     8   6 C        3.027     0.022    27.499     8.602
     9   6 C        3.093    -0.055    29.259     8.866
    10   6 C        3.095    -0.053    29.190     8.855
    11   6 C        3.023     0.018    27.592     8.616
    12   6 C        3.024     0.019    27.562     8.612
    13   6 C        3.096    -0.053    29.199     8.856
    14   6 C        3.097    -0.053    29.199     8.856
    15   6 C        3.022     0.019    27.550     8.610
    16   6 C        3.024     0.017    27.604     8.618
    17   6 C        3.108    -0.055    29.213     8.855
    18   6 C        3.107    -0.047    29.030     8.828
    19   6 C        2.940    -0.024    28.609     8.772
    20  16 S        2.327    -0.043   142.816    20.114
    21  16 S        2.345    -0.058   143.452    20.158
    22  16 S        2.342    -0.067   143.844    20.186
    23  16 S        2.363    -0.037   142.597    20.098
    24  17 Cl       0.055    -0.946   124.852    17.006
    25   1 H        0.912     0.298     0.715     1.323
    26   1 H        0.859     0.303     0.703     1.314
    27   1 H        0.859     0.286     0.756     1.362
    28   1 H        0.925     0.114     1.665     2.018
    29   1 H        0.925     0.100     1.787     2.091
    30   1 H        0.925     0.100     1.782     2.087
    31   1 H        0.925     0.095     1.831     2.116
    32   1 H        0.926     0.054     2.268     2.355
    33   1 H        0.926     0.036     2.501     2.473
    34   1 H        0.926     0.058     2.226     2.333
    35   1 H        0.926     0.047     2.352     2.398
    36   1 H        0.926     0.049     2.338     2.391
    37   1 H        0.926     0.050     2.314     2.379
    38   1 H        0.926     0.048     2.344     2.394
    39   1 H        0.926     0.053     2.288     2.366
    40   1 H        0.927     0.063     2.166     2.301

Wiberg/Mayer (AO) data.
largest (>0.10) Wiberg bond orders for each atom

     #   Z sym  total        # sym  WBO       # sym  WBO       # sym  WBO
 ---------------------------------------------------------------------------
     1   7 N    3.647 --     2 C    0.974    26 H    0.893    27 H    0.888
                            25 H    0.828
     2   6 C    3.928 --     3 C    0.988     1 N    0.974    29 H    0.968
                            28 H    0.963
     3   6 C    3.984 --     4 C    1.027     2 C    0.988    30 H    0.959
                            31 H    0.958
     4   6 C    3.923 --     5 C    1.573    23 S    1.150     3 C    1.027
     5   6 C    3.984 --     4 C    1.573     6 C    1.303    32 H    0.962
     6   6 C    3.970 --     7 C    1.504     5 C    1.303    33 H    0.961
     7   6 C    3.953 --     6 C    1.504     8 C    1.167    23 S    1.113
     8   6 C    3.926 --     9 C    1.478     7 C    1.167    22 S    1.116
     9   6 C    3.981 --     8 C    1.478    10 C    1.340    34 H    0.960
    10   6 C    3.972 --    11 C    1.475     9 C    1.340    35 H    0.960
    11   6 C    3.936 --    10 C    1.475    12 C    1.175    22 S    1.113
    12   6 C    3.937 --    13 C    1.474    11 C    1.175    21 S    1.115
    13   6 C    3.971 --    12 C    1.474    14 C    1.340    36 H    0.961
    14   6 C    3.984 --    15 C    1.481    13 C    1.340    37 H    0.960
    15   6 C    3.930 --    14 C    1.481    16 C    1.164    21 S    1.118
    16   6 C    3.951 --    17 C    1.505    15 C    1.164    20 S    1.122
    17   6 C    3.969 --    16 C    1.505    18 C    1.300    38 H    0.961
    18   6 C    3.986 --    19 C    1.605    17 C    1.300    39 H    0.963
    19   6 C    3.921 --    18 C    1.605    20 S    1.191    40 H    0.968
    20  16 S    2.595 --    19 C    1.191    16 C    1.122
    21  16 S    2.555 --    15 C    1.118    12 C    1.115
    22  16 S    2.551 --     8 C    1.116    11 C    1.113
    23  16 S    2.579 --     4 C    1.150     7 C    1.113
    24  17 Cl   0.104
    25   1 H    0.911 --     1 N    0.828
    26   1 H    0.908 --     1 N    0.893
    27   1 H    0.918 --     1 N    0.888
    28   1 H    0.986 --     2 C    0.963
    29   1 H    0.990 --     2 C    0.968
    30   1 H    0.989 --     3 C    0.959
    31   1 H    0.990 --     3 C    0.958
    32   1 H    0.997 --     5 C    0.962
    33   1 H    0.998 --     6 C    0.961
    34   1 H    0.996 --     9 C    0.960
    35   1 H    0.997 --    10 C    0.960
    36   1 H    0.997 --    13 C    0.961
    37   1 H    0.997 --    14 C    0.960
    38   1 H    0.998 --    17 C    0.961
    39   1 H    0.997 --    18 C    0.963
    40   1 H    0.996 --    19 C    0.968
 ---------------------------------------------------------------------------

molecular dipole:
                 x           y           z       tot (Debye)
 q only:        2.753       1.640       4.457
   full:        2.878       1.580       3.605      12.395

           -------------------------------------------------
          | TOTAL ENERGY              -67.176344769146 Eh   |
          | GRADIENT NORM               0.000405816221 Eh/α |
          | HOMO-LUMO GAP               1.771428088782 eV   |
           -------------------------------------------------

 * finished run on 2023/01/24 at 14:57:32.015
