   * xtb version 6.5.1 (fef0646) compiled by 'conda@b96dff2e9fd6' on 2023-01-04
          program call               : xtb init.xyz --opt -c 0 -u 0 -P 16 --input xtb.inp

   ID    Z sym.   atoms
    1    7 N      1, 16, 19
    2    6 C      2-15, 17, 18, 20-25
    3   16 S      26-29
    4   17 Cl     30
    5    1 H      31-48

          :  Hamiltonian                  GFN2-xTB          :
 * total energy  :   -82.4720080 Eh     change       -0.1775035E-08 Eh
 * total energy  :   -82.4879474 Eh     change       -0.1593943E-01 Eh
 * total energy  :   -82.4954006 Eh     change       -0.7453185E-02 Eh
 * total energy  :   -82.4976544 Eh     change       -0.2253817E-02 Eh
 * total energy  :   -82.5003126 Eh     change       -0.2658229E-02 Eh
 * total energy  :   -82.5019921 Eh     change       -0.1679515E-02 Eh
 * total energy  :   -82.5043094 Eh     change       -0.2317268E-02 Eh
 * total energy  :   -82.5052050 Eh     change       -0.8956377E-03 Eh
 * total energy  :   -82.5063447 Eh     change       -0.1139708E-02 Eh
 * total energy  :   -82.5067225 Eh     change       -0.3777950E-03 Eh
 * total energy  :   -82.5139196 Eh     change       -0.2039330E-04 Eh
 * total energy  :   -82.5139294 Eh     change       -0.9755676E-05 Eh
 * total energy  :   -82.5139381 Eh     change       -0.8729754E-05 Eh
 * total energy  :   -82.5139455 Eh     change       -0.7395723E-05 Eh
 * total energy  :   -82.5139548 Eh     change       -0.9303202E-05 Eh
 * total energy  :   -82.5139665 Eh     change       -0.1166924E-04 Eh
 * total energy  :   -82.5139747 Eh     change       -0.8258702E-05 Eh
 * total energy  :   -82.5139802 Eh     change       -0.5482828E-05 Eh
 * total energy  :   -82.5139842 Eh     change       -0.3991160E-05 Eh
   *** GEOMETRY OPTIMIZATION CONVERGED AFTER 66 ITERATIONS ***

 final structure:
================
48
 xtb: 6.5.1 (fef0646)
N            3.20101814730551        0.74995380497223        0.33188249635266
C            2.88550404339004        1.49907949843888       -0.87398682636738
C            4.04192583202635        2.37921246063342       -1.39579354857485
C            5.18462714759148        1.55930789528463       -1.88245540757192
C            5.46281555159613        1.17622668396537       -3.16148650490756
C            6.59595424189575        0.35283657919173       -3.26768625747688
C            7.19319383768031        0.09381176579643       -2.06041739271341
C            8.33983068333472       -0.70499129808682       -1.79224574268710
C            8.92351283157717       -0.97985002611568       -0.57862751803526
C           10.04232534457784       -1.81915998018991       -0.65540116620296
C           10.80896783607968       -2.23910251923209        0.55146918179077
C           10.32686391264056       -2.19667712780283       -1.96103010009230
C           11.36205113035941       -3.04065950272249       -2.44561202713750
C           11.63827423406249       -3.39275838793140       -3.75852707394073
C           10.93705589446069       -2.95150957390430       -4.89223003992962
N           10.39857195199376       -2.61519975529735       -5.84836578844390
C           12.74843015403138       -4.27784134775781       -3.88817030376890
C           13.15509469237443       -4.73095389776839       -5.15442544509326
N           13.44494588481010       -5.06988208297666       -6.21149164904446
C           13.33480089629715       -4.61153563303389       -2.67799992925463
C           14.44850792254535       -5.46725591087680       -2.44160582761685
C           15.04814918651649       -5.80388161728068       -1.23921443666766
C           14.63340722820083       -5.31610301280848        0.10665602445354
C           16.13159345688749       -6.68768508279428       -1.42157517865913
C           16.35138398707758       -7.01512428443629       -2.72189180723703
S           15.24364832839119       -6.25666415137831       -3.78357191605608
S           12.49809488294150       -3.81417526665140       -1.37350927710993
S            9.18721992147779       -1.49319781574272       -3.08497993990374
S            6.33823919052057        0.89068436882366       -0.76877413285396
Cl           0.86069120774955       -0.80671159801250        1.21553003484969
H            1.94187480839477       -0.09331791822288        0.80484658493401
H            3.45738420477352        1.37505557563032        1.08923523598002
H            3.97327738045953        0.11045626676444        0.17135579198166
H            2.02620526142543        2.13578525119222       -0.65449862798422
H            2.59607311808631        0.78364208399830       -1.64664097749495
H            4.37090441270050        3.04299103434295       -0.59216119688674
H            3.66927499413187        2.99091934451254       -2.21847665159222
H            4.87158545427536        1.48305745447489       -4.00566614946872
H            6.97115162476596       -0.04326339542103       -4.19449091761317
H            8.54588649865714       -0.58234640234950        0.34753994591537
H           10.37795578948589       -1.78236762445099        1.43792777151257
H           11.85299397793027       -1.93649760429934        0.47594347003767
H           10.78250886724216       -3.32200865335605        0.67080124306029
H           13.60403058349728       -5.60131448485372        0.32507634441940
H           14.69879871099350       -4.22948123631756        0.16546218547231
H           15.27982917790467       -5.74368822795116        0.86846384677460
H           16.72421984833430       -7.06373300781554       -0.60679786171885
H           17.10453572654627       -7.66226164018765       -3.12513253741023

          :  Hamiltonian                  GFN2-xTB          :
         :: total energy             -82.513984199040 Eh    ::
         :: gradient norm              0.000729823170 Eh/a0 ::
         :: HOMO-LUMO gap              1.712138358562 eV    ::
         :: SCC energy               -83.748513228329 Eh    ::
         :: -> dispersion             -0.066483960180 Eh    ::
         :: repulsion energy           1.235142173853 Eh    ::

    * Orbital Energies and Occupations

         #    Occupation            Energy/Eh            Energy/eV
      -------------------------------------------------------------
         1        2.0000           -1.0220863             -27.8124
       ...           ...                  ...                  ...
        64        2.0000           -0.4529585             -12.3256
        65        2.0000           -0.4282554             -11.6534
        66        2.0000           -0.4273208             -11.6280
        67        2.0000           -0.4263412             -11.6013
        68        2.0000           -0.4219809             -11.4827
        69        2.0000           -0.4170145             -11.3475
        70        2.0000           -0.4128940             -11.2354
        71        2.0000           -0.4094224             -11.1410
        72        2.0000           -0.4087062             -11.1215
        73        2.0000           -0.3990807             -10.8595
        74        2.0000           -0.3989926             -10.8571
        75        2.0000           -0.3974688             -10.8157
        76        2.0000           -0.3744115             -10.1883 (HOMO)
        77                         -0.3114916              -8.4761 (LUMO)
        78                         -0.2927444              -7.9660
        79                         -0.2681762              -7.2974
        80                         -0.2411318              -6.5615
        81                         -0.2363778              -6.4322
        82                         -0.2349291              -6.3927
        83                         -0.2285800              -6.2200
        84                         -0.2262217              -6.1558
        85                         -0.2250828              -6.1248
        86                         -0.2027190              -5.5163
        87                         -0.1922759              -5.2321
       ...                                ...                  ...
       163                          1.1932953              32.4712
      -------------------------------------------------------------
                  HL-Gap            0.0629199 Eh            1.7121 eV

     #   Z          covCN         q      C6AA      α(0)
     1   7 N        2.671    -0.307    27.913     7.847
     2   6 C        3.732     0.002    20.632     6.483
     3   6 C        3.823    -0.072    21.853     6.652
     4   6 C        2.985     0.022    27.516     8.605
     5   6 C        3.108    -0.051    29.128     8.842
     6   6 C        3.105    -0.046    29.002     8.824
     7   6 C        3.026     0.018    27.583     8.615
     8   6 C        3.017     0.024    27.439     8.593
     9   6 C        3.105    -0.059    29.330     8.874
    10   6 C        3.120     0.006    27.710     8.621
    11   6 C        3.757    -0.109    22.638     6.784
    12   6 C        3.020     0.005    27.885     8.662
    13   6 C        3.014     0.026    27.410     8.588
    14   6 C        3.150    -0.004    27.838     8.630
    15   6 C        1.910     0.114    28.282     8.589
    16   7 N        0.911    -0.226    25.946     7.367
    17   6 C        3.150    -0.003    27.814     8.626
    18   6 C        1.908     0.114    28.292     8.590
    19   7 N        0.911    -0.223    25.878     7.357
    20   6 C        3.012     0.027    27.392     8.585
    21   6 C        3.022     0.003    27.943     8.671
    22   6 C        3.131     0.004    27.714     8.618
    23   6 C        3.757    -0.109    22.628     6.782
    24   6 C        3.115    -0.051    29.095     8.836
    25   6 C        2.934    -0.016    28.413     8.742
    26  16 S        2.317    -0.004   141.221    20.001
    27  16 S        2.353    -0.020   141.878    20.047
    28  16 S        2.343    -0.026   142.125    20.065
    29  16 S        2.351    -0.053   143.249    20.144
    30  17 Cl       0.839    -0.469   114.558    16.374
    31   1 H        0.881     0.331     0.626     1.239
    32   1 H        0.860     0.169     1.280     1.773
    33   1 H        0.860     0.174     1.250     1.751
    34   1 H        0.924     0.060     2.202     2.320
    35   1 H        0.924     0.059     2.212     2.326
    36   1 H        0.924     0.052     2.298     2.371
    37   1 H        0.924     0.057     2.240     2.341
    38   1 H        0.926     0.044     2.397     2.421
    39   1 H        0.926     0.051     2.304     2.374
    40   1 H        0.926     0.046     2.364     2.404
    41   1 H        0.925     0.057     2.238     2.339
    42   1 H        0.925     0.057     2.237     2.339
    43   1 H        0.925     0.058     2.227     2.334
    44   1 H        0.924     0.057     2.240     2.340
    45   1 H        0.925     0.056     2.244     2.342
    46   1 H        0.925     0.056     2.243     2.342
    47   1 H        0.926     0.046     2.377     2.411
    48   1 H        0.926     0.056     2.250     2.346

Wiberg/Mayer (AO) data.
largest (>0.10) Wiberg bond orders for each atom

     #   Z sym  total        # sym  WBO       # sym  WBO       # sym  WBO
 ---------------------------------------------------------------------------
     1   7 N    3.233 --     2 C    1.020    32 H    0.957    33 H    0.949
                            31 H    0.185
     2   6 C    3.972 --     1 N    1.020    35 H    0.974    34 H    0.971
                             3 C    0.971
     3   6 C    3.994 --     4 C    1.031     2 C    0.971    36 H    0.968
                            37 H    0.966
     4   6 C    3.924 --     5 C    1.566    29 S    1.154     3 C    1.031
     5   6 C    3.984 --     4 C    1.566     6 C    1.307    38 H    0.963
     6   6 C    3.968 --     7 C    1.502     5 C    1.307    39 H    0.960
     7   6 C    3.948 --     6 C    1.502     8 C    1.168    29 S    1.110
     8   6 C    3.939 --     9 C    1.464     7 C    1.168    28 S    1.137
     9   6 C    3.979 --     8 C    1.464    10 C    1.330    40 H    0.960
    10   6 C    3.974 --    12 C    1.413     9 C    1.330    11 C    1.030
    11   6 C    3.994 --    10 C    1.030    41 H    0.980    42 H    0.963
                            43 H    0.962
    12   6 C    3.930 --    10 C    1.413    13 C    1.200    28 S    1.114
    13   6 C    3.945 --    14 C    1.391    12 C    1.200    27 S    1.123
    14   6 C    3.965 --    13 C    1.391    17 C    1.186    15 C    1.114
    15   6 C    3.948 --    16 N    2.771    14 C    1.114
    16   7 N    2.999 --    15 C    2.771
    17   6 C    3.979 --    20 C    1.400    14 C    1.186    18 C    1.111
    18   6 C    3.949 --    19 N    2.777    17 C    1.111
    19   7 N    3.006 --    18 C    2.777
    20   6 C    3.940 --    17 C    1.400    21 C    1.188    27 S    1.126
    21   6 C    3.944 --    22 C    1.443    20 C    1.188    26 S    1.121
    22   6 C    3.972 --    21 C    1.443    24 C    1.289    23 C    1.031
    23   6 C    3.994 --    22 C    1.031    46 H    0.981    45 H    0.962
                            44 H    0.962
    24   6 C    3.985 --    25 C    1.589    22 C    1.289    47 H    0.963
    25   6 C    3.935 --    24 C    1.589    26 S    1.215    48 H    0.968
    26  16 S    2.641 --    25 C    1.215    21 C    1.121
    27  16 S    2.637 --    20 C    1.126    13 C    1.123
    28  16 S    2.598 --     8 C    1.137    12 C    1.114
    29  16 S    2.575 --     4 C    1.154     7 C    1.110
    30  17 Cl   0.781 --    31 H    0.702
    31   1 H    0.890 --    30 Cl   0.702     1 N    0.185
    32   1 H    0.972 --     1 N    0.957
    33   1 H    0.970 --     1 N    0.949
    34   1 H    0.995 --     2 C    0.971
    35   1 H    0.997 --     2 C    0.974
    36   1 H    0.996 --     3 C    0.968
    37   1 H    0.996 --     3 C    0.966
    38   1 H    0.998 --     5 C    0.963
    39   1 H    0.997 --     6 C    0.960
    40   1 H    0.997 --     9 C    0.960
    41   1 H    0.996 --    11 C    0.980
    42   1 H    0.995 --    11 C    0.963
    43   1 H    0.995 --    11 C    0.962
    44   1 H    0.996 --    23 C    0.962
    45   1 H    0.995 --    23 C    0.962
    46   1 H    0.996 --    23 C    0.981
    47   1 H    0.997 --    24 C    0.963
    48   1 H    0.996 --    25 C    0.968
 ---------------------------------------------------------------------------

molecular dipole:
                 x           y           z       tot (Debye)
 q only:        1.416       1.292       2.122
   full:        1.637       1.147       2.678       8.492

           -------------------------------------------------
          | TOTAL ENERGY              -82.513984199040 Eh   |
          | GRADIENT NORM               0.000729823170 Eh/α |
          | HOMO-LUMO GAP               1.712138358562 eV   |
           -------------------------------------------------

 * finished run on 2023/01/23 at 19:17:02.687
