   * xtb version 6.5.1 (fef0646) compiled by 'conda@b96dff2e9fd6' on 2023-01-04
          program call               : xtb init.xyz --opt -c 0 -u 0 -P 16

   ID    Z sym.   atoms
    1    7 N      1
    2    6 C      2-7
    3   16 S      8
    4   17 Cl     9
    5    1 H      10-19

          :  Hamiltonian                  GFN2-xTB          :
 * total energy  :   -28.6084187 Eh     change       -0.4717755E-09 Eh
 * total energy  :   -28.6107645 Eh     change       -0.2345745E-02 Eh
 * total energy  :   -28.6161111 Eh     change       -0.5346634E-02 Eh
 * total energy  :   -28.6213213 Eh     change       -0.5210187E-02 Eh
 * total energy  :   -28.6279446 Eh     change       -0.6623331E-02 Eh
 * total energy  :   -28.6317161 Eh     change       -0.3771478E-02 Eh
 * total energy  :   -28.6338216 Eh     change       -0.2105480E-02 Eh
 * total energy  :   -28.6354321 Eh     change       -0.1610487E-02 Eh
 * total energy  :   -28.6368543 Eh     change       -0.1422195E-02 Eh
 * total energy  :   -28.6375064 Eh     change       -0.6521512E-03 Eh
 * total energy  :   -28.6395527 Eh     change       -0.5357056E-04 Eh
 * total energy  :   -28.6395924 Eh     change       -0.3967154E-04 Eh
 * total energy  :   -28.6396142 Eh     change       -0.2178905E-04 Eh
 * total energy  :   -28.6396257 Eh     change       -0.1156178E-04 Eh
 * total energy  :   -28.6396347 Eh     change       -0.8938506E-05 Eh
 * total energy  :   -28.6396437 Eh     change       -0.9013391E-05 Eh
 * total energy  :   -28.6396533 Eh     change       -0.9565300E-05 Eh
 * total energy  :   -28.6396594 Eh     change       -0.6155944E-05 Eh
 * total energy  :   -28.6396632 Eh     change       -0.3809296E-05 Eh
   *** GEOMETRY OPTIMIZATION CONVERGED AFTER 30 ITERATIONS ***

 final structure:
================
19
 xtb: 6.5.1 (fef0646)
N            1.33681823382456       -0.45900338590881       -0.18961260138354
C            2.76512633415955       -0.23915658063907        0.02165336352898
C            3.15465401153224        1.16501784906529       -0.45210220109670
C            4.60544532957460        1.42300393303733       -0.23410079938310
C            5.58182770402959        1.61024160242049       -1.16112593973550
C            6.86206270426707        1.80681961962193       -0.59280465436219
C            6.84091691056450        1.76125319998946        0.76103680762473
S            5.25780013135847        1.48201138719297        1.37306898982116
Cl          -0.24398121704506        1.65641265599690        1.10272672271439
H            1.04454207265842       -1.35465090867996        0.18471726259886
H            1.10931963366293       -0.42778150818312       -1.17811705746949
H            0.50106745740306        0.67091518668876        0.51445025369398
H            3.38367260772556       -0.98378337858025       -0.50053216082207
H            2.96141520889743       -0.32330260793747        1.09291162493666
H            2.55092464540205        1.89107971581341        0.09575370223843
H            2.93252658031327        1.26887224244970       -1.51652321300875
H            5.39697106531602        1.61504856917555       -2.22080604064008
H            7.75304885188745        1.97285612276416       -1.17132275824109
H            7.65600173446882        1.87427628571297        1.44760869898488

          :  Hamiltonian                  GFN2-xTB          :
         :: total energy             -28.639663229373 Eh    ::
         :: gradient norm              0.000290787180 Eh/a0 ::
         :: HOMO-LUMO gap              3.915996246865 eV    ::
         :: SCC energy               -28.981821921899 Eh    ::
         :: -> dispersion             -0.015599534333 Eh    ::
         :: repulsion energy           0.342153688239 Eh    ::

    * Orbital Energies and Occupations

         #    Occupation            Energy/Eh            Energy/eV
      -------------------------------------------------------------
         1        2.0000           -1.0196880             -27.7471
       ...           ...                  ...                  ...
        14        2.0000           -0.5020243             -13.6608
        15        2.0000           -0.4915776             -13.3765
        16        2.0000           -0.4761356             -12.9563
        17        2.0000           -0.4710590             -12.8182
        18        2.0000           -0.4699367             -12.7876
        19        2.0000           -0.4665058             -12.6943
        20        2.0000           -0.4515278             -12.2867
        21        2.0000           -0.4475903             -12.1796
        22        2.0000           -0.4038325             -10.9888
        23        2.0000           -0.3970586             -10.8045
        24        2.0000           -0.3968342             -10.7984
        25        2.0000           -0.3965124             -10.7897
        26        2.0000           -0.3880462             -10.5593 (HOMO)
        27                         -0.2441360              -6.6433 (LUMO)
        28                         -0.2020471              -5.4980
        29                         -0.1686081              -4.5881
        30                         -0.1182464              -3.2176
        31                         -0.0587421              -1.5985
        32                         -0.0064706              -0.1761
        33                          0.0138870               0.3779
        34                          0.0255203               0.6944
        35                          0.0326497               0.8884
        36                          0.0640276               1.7423
        37                          0.0645914               1.7576
       ...                                ...                  ...
        56                          0.6984691              19.0063
      -------------------------------------------------------------
                  HL-Gap            0.1439102 Eh            3.9160 eV

     #   Z          covCN         q      C6AA      α(0)
     1   7 N        2.684    -0.306    27.873     7.841
     2   6 C        3.733     0.010    20.494     6.461
     3   6 C        3.827    -0.075    21.911     6.661
     4   6 C        2.988     0.019    27.584     8.615
     5   6 C        3.123    -0.057    29.226     8.853
     6   6 C        3.114    -0.046    28.979     8.818
     7   6 C        2.941    -0.023    28.571     8.767
     8  16 S        2.336    -0.038   142.613    20.099
     9  17 Cl       0.838    -0.480   114.962    16.403
    10   1 H        0.860     0.168     1.287     1.777
    11   1 H        0.860     0.167     1.288     1.778
    12   1 H        0.891     0.333     0.620     1.233
    13   1 H        0.923     0.027     2.626     2.534
    14   1 H        0.924     0.060     2.201     2.320
    15   1 H        0.924     0.077     2.007     2.215
    16   1 H        0.924     0.050     2.320     2.382
    17   1 H        0.926     0.034     2.530     2.487
    18   1 H        0.926     0.037     2.495     2.470
    19   1 H        0.926     0.043     2.408     2.427

Wiberg/Mayer (AO) data.
largest (>0.10) Wiberg bond orders for each atom

     #   Z sym  total        # sym  WBO       # sym  WBO       # sym  WBO
 ---------------------------------------------------------------------------
     1   7 N    3.231 --     2 C    1.007    11 H    0.958    10 H    0.958
                            12 H    0.198
     2   6 C    3.975 --     1 N    1.007     3 C    0.990    14 H    0.973
                            13 H    0.973
     3   6 C    3.994 --     4 C    1.026     2 C    0.990    16 H    0.969
                            15 H    0.959
     4   6 C    3.951 --     5 C    1.607     8 S    1.159     3 C    1.026
                             7 C    0.114
     5   6 C    3.985 --     4 C    1.607     6 C    1.263    17 H    0.965
     6   6 C    3.988 --     7 C    1.638     5 C    1.263    18 H    0.965
     7   6 C    3.947 --     6 C    1.638     8 S    1.186    19 H    0.971
                             4 C    0.114
     8  16 S    2.605 --     7 C    1.186     4 C    1.159
     9  17 Cl   0.772 --    12 H    0.686
    10   1 H    0.971 --     1 N    0.958
    11   1 H    0.972 --     1 N    0.958
    12   1 H    0.889 --     9 Cl   0.686     1 N    0.198
    13   1 H    0.999 --     2 C    0.973
    14   1 H    0.996 --     2 C    0.973
    15   1 H    0.994 --     3 C    0.959
    16   1 H    0.997 --     3 C    0.969
    17   1 H    0.999 --     5 C    0.965
    18   1 H    0.998 --     6 C    0.965
    19   1 H    0.998 --     7 C    0.971
 ---------------------------------------------------------------------------

molecular dipole:
                 x           y           z       tot (Debye)
 q only:        1.009      -1.310      -0.916
   full:        0.950      -1.272      -1.133       4.957

           -------------------------------------------------
          | TOTAL ENERGY              -28.639663229373 Eh   |
          | GRADIENT NORM               0.000290787180 Eh/α |
          | HOMO-LUMO GAP               3.915996246865 eV   |
           -------------------------------------------------

 * finished run on 2023/01/23 at 14:09:27.384
