   * xtb version 6.5.1 (fef0646) compiled by 'conda@b96dff2e9fd6' on 2023-01-04
          program call               : xtb init.xyz --opt -c 1 -u 0 -P 16 --alpb water

   ID    Z sym.   atoms
    1    7 N      1
    2    6 C      2-5
    3    1 H      6-17

      * Solvation model:               ALPB
        Solvent                        water
        Solvent mass                       1.8000E+01 g/mol
          :  Hamiltonian                  GFN2-xTB          :
 * total energy  :   -17.2782467 Eh     change       -0.6647127E-11 Eh
 * total energy  :   -17.2792128 Eh     change       -0.9661748E-03 Eh
 * total energy  :   -17.2793156 Eh     change       -0.1027576E-03 Eh
 * total energy  :   -17.2793275 Eh     change       -0.1188583E-04 Eh
 * total energy  :   -17.2793292 Eh     change       -0.1709739E-05 Eh
   *** GEOMETRY OPTIMIZATION CONVERGED AFTER 5 ITERATIONS ***

 final structure:
================
17
 xtb: 6.5.1 (fef0646)
N            0.92968281612971        0.05428934589040       -0.04608266150865
C            2.41312032554540        0.06007279664378       -0.06092875318109
C            2.93649590899382        0.45167698454742       -1.43805732681788
C            4.46498108697796        0.46006733045779       -1.46194944407772
C            4.99660890751193        0.85080959020940       -2.83651476703251
H            0.57446371183310       -0.20424310749414        0.88142422851861
H            0.57325346062058       -0.61758869104669       -0.73593386216593
H            0.57155215569999        0.98544602490720       -0.28944484415710
H            2.77779787681623       -0.93294932051063        0.20129001178553
H            2.77619552284384        0.76814227151452        0.68380118547302
H            2.58251407010643        1.44744007348483       -1.70843203746922
H            2.58363957470392       -0.25334344280912       -2.19196858087224
H            4.84456245996214       -0.52955378461638       -1.20124129956999
H            4.84250661750069        1.16607864430204       -0.72000338239632
H            4.65884813871136        0.14906255534140       -3.59609065016033
H            6.08393931954082        0.85335275526411       -2.83999857326102
H            4.65644804650208        1.84599997391408       -3.11465924310716

          :  Hamiltonian                  GFN2-xTB          :
         :: total energy             -17.279329182548 Eh    ::
         :: gradient norm              0.000363849237 Eh/a0 ::
         :: HOMO-LUMO gap             10.176187109719 eV    ::
         :: SCC energy               -17.531375623412 Eh    ::
         :: -> dispersion             -0.007157819562 Eh    ::
         :: -> Gsolv                  -0.116919554898 Eh    ::
         :: repulsion energy           0.252043388212 Eh    ::

    * Orbital Energies and Occupations

         #    Occupation            Energy/Eh            Energy/eV
      -------------------------------------------------------------
         1        2.0000           -0.6924710             -18.8431
       ...           ...                  ...                  ...
         4        2.0000           -0.6007588             -16.3475
         5        2.0000           -0.5900999             -16.0574
         6        2.0000           -0.5813321             -15.8189
         7        2.0000           -0.5552196             -15.1083
         8        2.0000           -0.5450097             -14.8305
         9        2.0000           -0.5201975             -14.1553
        10        2.0000           -0.4966857             -13.5155
        11        2.0000           -0.4849802             -13.1970
        12        2.0000           -0.4751806             -12.9303
        13        2.0000           -0.4483801             -12.2010
        14        2.0000           -0.4480723             -12.1927
        15        2.0000           -0.4379440             -11.9171
        16        2.0000           -0.4251787             -11.5697 (HOMO)
        17                         -0.0512107              -1.3935 (LUMO)
        18                          0.0495513               1.3484
        19                          0.0791343               2.1534
        20                          0.0998615               2.7174
        21                          0.1176831               3.2023
        22                          0.1417793               3.8580
        23                          0.1517361               4.1289
        24                          0.1519747               4.1354
        25                          0.1691911               4.6039
        26                          0.1881627               5.1202
        27                          0.2104664               5.7271
       ...                                ...                  ...
        32                          0.3082793               8.3887
      -------------------------------------------------------------
                  HL-Gap            0.3739680 Eh           10.1762 eV

     #   Z          covCN         q      C6AA      α(0)
     1   7 N        3.485    -0.162    24.490     7.350
     2   6 C        3.732    -0.038    21.341     6.594
     3   6 C        3.803    -0.086    22.144     6.699
     4   6 C        3.802    -0.065    21.747     6.639
     5   6 C        3.752    -0.115    22.770     6.805
     6   1 H        0.859     0.316     0.668     1.280
     7   1 H        0.859     0.309     0.688     1.300
     8   1 H        0.859     0.309     0.688     1.299
     9   1 H        0.925     0.106     1.731     2.058
    10   1 H        0.925     0.106     1.732     2.058
    11   1 H        0.924     0.066     2.128     2.281
    12   1 H        0.924     0.066     2.129     2.282
    13   1 H        0.924     0.041     2.433     2.439
    14   1 H        0.924     0.041     2.433     2.439
    15   1 H        0.925     0.039     2.465     2.455
    16   1 H        0.925     0.029     2.602     2.523
    17   1 H        0.925     0.039     2.465     2.455

Wiberg/Mayer (AO) data.
largest (>0.10) Wiberg bond orders for each atom

     #   Z sym  total        # sym  WBO       # sym  WBO       # sym  WBO
 ---------------------------------------------------------------------------
     1   7 N    3.653 --     2 C    0.966     7 H    0.890     8 H    0.890
                             6 H    0.887
     2   6 C    3.927 --     3 C    1.011    10 H    0.967     9 H    0.967
                             1 N    0.966
     3   6 C    3.991 --     2 C    1.011     4 C    1.005    12 H    0.973
                            11 H    0.973
     4   6 C    3.996 --     5 C    1.019     3 C    1.005    13 H    0.978
                            14 H    0.978
     5   6 C    3.995 --     4 C    1.019    15 H    0.987    17 H    0.987
                            16 H    0.987
     6   1 H    0.900 --     1 N    0.887
     7   1 H    0.905 --     1 N    0.890
     8   1 H    0.905 --     1 N    0.890
     9   1 H    0.989 --     2 C    0.967
    10   1 H    0.989 --     2 C    0.967
    11   1 H    0.996 --     3 C    0.973
    12   1 H    0.996 --     3 C    0.973
    13   1 H    0.998 --     4 C    0.978
    14   1 H    0.998 --     4 C    0.978
    15   1 H    0.998 --     5 C    0.987
    16   1 H    0.999 --     5 C    0.987
    17   1 H    0.998 --     5 C    0.987
 ---------------------------------------------------------------------------

molecular dipole:
                 x           y           z       tot (Debye)
 q only:        1.963       0.115      -0.127
   full:        1.910       0.123      -0.157       4.881

           -------------------------------------------------
          | TOTAL ENERGY              -17.279329182548 Eh   |
          | GRADIENT NORM               0.000363849237 Eh/α |
          | HOMO-LUMO GAP              10.176187109719 eV   |
           -------------------------------------------------

 * finished run on 2023/01/24 at 15:59:08.810
