   * xtb version 6.5.1 (fef0646) compiled by 'conda@b96dff2e9fd6' on 2023-01-04
          program call               : xtb init.xyz --opt -c 0 -u 0 -P 16 --alpb water

   ID    Z sym.   atoms
    1    7 N      1
    2    6 C      2, 3
    3   17 Cl     4
    4    1 H      5-12

      * Solvation model:               ALPB
        Solvent                        water
        Solvent mass                       1.8000E+01 g/mol
          :  Hamiltonian                  GFN2-xTB          :
 * total energy  :   -15.8608457 Eh     change       -0.3201386E-09 Eh
 * total energy  :   -15.8645139 Eh     change       -0.3668236E-02 Eh
 * total energy  :   -15.8653869 Eh     change       -0.8730028E-03 Eh
 * total energy  :   -15.8656775 Eh     change       -0.2905930E-03 Eh
 * total energy  :   -15.8657629 Eh     change       -0.8538829E-04 Eh
 * total energy  :   -15.8658405 Eh     change       -0.7756806E-04 Eh
 * total energy  :   -15.8659108 Eh     change       -0.7034484E-04 Eh
 * total energy  :   -15.8659636 Eh     change       -0.5284608E-04 Eh
 * total energy  :   -15.8660006 Eh     change       -0.3698226E-04 Eh
 * total energy  :   -15.8660436 Eh     change       -0.4301651E-04 Eh
 * total energy  :   -15.8660792 Eh     change       -0.3553361E-04 Eh
 * total energy  :   -15.8661147 Eh     change       -0.3549616E-04 Eh
 * total energy  :   -15.8661432 Eh     change       -0.2856753E-04 Eh
 * total energy  :   -15.8661542 Eh     change       -0.1099572E-04 Eh
 * total energy  :   -15.8661558 Eh     change       -0.1586472E-05 Eh
   *** GEOMETRY OPTIMIZATION CONVERGED AFTER 15 ITERATIONS ***

 final structure:
================
12
 xtb: 6.5.1 (fef0646)
N            1.06565009065563       -0.19636396639871       -0.22730354121720
C            2.53000895984545       -0.38291772769210       -0.13576866361942
C            2.92282190162508       -0.60614201053688        1.31324619674741
Cl           0.21991277272370        2.21124610399659        1.47159553948732
H            0.76360716670767       -0.01719449192151       -1.18719793430883
H            0.77772999213364        0.62911264690056        0.35672079554457
H            0.57360550733467       -1.01187175168262        0.14575363044765
H            3.01467194041314        0.51725825296413       -0.51166166060128
H            2.82494290430481       -1.23500938076343       -0.74917662366677
H            2.54651239705862        0.21280979098304        1.92210004374815
H            4.00266189447307       -0.63991948513580        1.41324055536420
H            2.51376447272434       -1.53810798071323        1.69292166207424

          :  Hamiltonian                  GFN2-xTB          :
         :: total energy             -15.866155820914 Eh    ::
         :: gradient norm              0.000201546160 Eh/a0 ::
         :: HOMO-LUMO gap             10.293174593006 eV    ::
         :: SCC energy               -16.023559792854 Eh    ::
         :: -> dispersion             -0.004917901219 Eh    ::
         :: -> Gsolv                  -0.072560107832 Eh    ::
         :: repulsion energy           0.157395570449 Eh    ::

    * Orbital Energies and Occupations

         #    Occupation            Energy/Eh            Energy/eV
      -------------------------------------------------------------
         1        2.0000           -1.0064507             -27.3869
         2        2.0000           -0.6710506             -18.2602
         3        2.0000           -0.6237947             -16.9743
         4        2.0000           -0.5884461             -16.0124
         5        2.0000           -0.5658564             -15.3977
         6        2.0000           -0.5602771             -15.2459
         7        2.0000           -0.5296907             -14.4136
         8        2.0000           -0.4880943             -13.2817
         9        2.0000           -0.4653454             -12.6627
        10        2.0000           -0.4545571             -12.3691
        11        2.0000           -0.4363236             -11.8730
        12        2.0000           -0.4030375             -10.9672
        13        2.0000           -0.4006822             -10.9031
        14        2.0000           -0.4005052             -10.8983 (HOMO)
        15                         -0.0222380              -0.6051 (LUMO)
        16                          0.0821598               2.2357
        17                          0.1027822               2.7968
        18                          0.1166213               3.1734
        19                          0.1172346               3.1901
        20                          0.1176788               3.2022
        21                          0.1195774               3.2539
        22                          0.1196597               3.2561
        23                          0.1445492               3.9334
        24                          0.1602880               4.3617
        25                          0.1934933               5.2652
       ...                                ...                  ...
        29                          0.2954929               8.0408
      -------------------------------------------------------------
                  HL-Gap            0.3782672 Eh           10.2932 eV

     #   Z          covCN         q      C6AA      α(0)
     1   7 N        3.484    -0.169    24.654     7.375
     2   6 C        3.730    -0.020    21.029     6.546
     3   6 C        3.753    -0.138    23.206     6.869
     4  17 Cl       0.044    -0.949   124.962    17.013
     5   1 H        0.859     0.300     0.712     1.322
     6   1 H        0.901     0.292     0.734     1.340
     7   1 H        0.859     0.297     0.723     1.332
     8   1 H        0.925     0.094     1.841     2.122
     9   1 H        0.924     0.104     1.749     2.068
    10   1 H        0.925     0.057     2.230     2.335
    11   1 H        0.925     0.067     2.124     2.279
    12   1 H        0.925     0.065     2.139     2.287

Wiberg/Mayer (AO) data.
largest (>0.10) Wiberg bond orders for each atom

     #   Z sym  total        # sym  WBO       # sym  WBO       # sym  WBO
 ---------------------------------------------------------------------------
     1   7 N    3.646 --     2 C    0.965     7 H    0.897     5 H    0.896
                             6 H    0.836
     2   6 C    3.931 --     3 C    1.024     8 H    0.970     9 H    0.968
                             1 N    0.965
     3   6 C    3.988 --     2 C    1.024    12 H    0.984    10 H    0.983
                            11 H    0.980
     4  17 Cl   0.099
     5   1 H    0.910 --     1 N    0.896
     6   1 H    0.915 --     1 N    0.836
     7   1 H    0.912 --     1 N    0.897
     8   1 H    0.991 --     2 C    0.970
     9   1 H    0.989 --     2 C    0.968
    10   1 H    0.997 --     3 C    0.983
    11   1 H    0.996 --     3 C    0.980
    12   1 H    0.996 --     3 C    0.984
 ---------------------------------------------------------------------------

molecular dipole:
                 x           y           z       tot (Debye)
 q only:        1.772      -4.360      -2.942
   full:        1.412      -3.780      -2.595      12.193

           -------------------------------------------------
          | TOTAL ENERGY              -15.866155820914 Eh   |
          | GRADIENT NORM               0.000201546160 Eh/α |
          | HOMO-LUMO GAP              10.293174593006 eV   |
           -------------------------------------------------

 * finished run on 2023/01/24 at 14:55:56.126
