   * xtb version 6.5.1 (fef0646) compiled by 'conda@b96dff2e9fd6' on 2023-01-04
          program call               : xtb init.xyz --opt -c 0 -u 0 -P 16

   ID    Z sym.   atoms
    1    7 N      1
    2    6 C      2-10
    3   17 Cl     11
    4    1 H      12-25

          :  Hamiltonian                  GFN2-xTB          :
 * total energy  :   -33.8478794 Eh     change       -0.1683560E-09 Eh
 * total energy  :   -33.8549489 Eh     change       -0.7069537E-02 Eh
 * total energy  :   -33.8589650 Eh     change       -0.4016021E-02 Eh
 * total energy  :   -33.8617977 Eh     change       -0.2832736E-02 Eh
 * total energy  :   -33.8646673 Eh     change       -0.2869586E-02 Eh
 * total energy  :   -33.8661663 Eh     change       -0.1499073E-02 Eh
 * total energy  :   -33.8665531 Eh     change       -0.3868033E-03 Eh
 * total energy  :   -33.8668620 Eh     change       -0.3088654E-03 Eh
 * total energy  :   -33.8669479 Eh     change       -0.8592192E-04 Eh
 * total energy  :   -33.8669985 Eh     change       -0.5054210E-04 Eh
 * total energy  :   -33.8673319 Eh     change       -0.2921201E-04 Eh
 * total energy  :   -33.8673552 Eh     change       -0.2331574E-04 Eh
 * total energy  :   -33.8673713 Eh     change       -0.1610386E-04 Eh
 * total energy  :   -33.8673827 Eh     change       -0.1135715E-04 Eh
 * total energy  :   -33.8673928 Eh     change       -0.1016418E-04 Eh
 * total energy  :   -33.8673994 Eh     change       -0.6534582E-05 Eh
 * total energy  :   -33.8674099 Eh     change       -0.1050271E-04 Eh
 * total energy  :   -33.8674160 Eh     change       -0.6172442E-05 Eh
 * total energy  :   -33.8674200 Eh     change       -0.3941838E-05 Eh
   *** GEOMETRY OPTIMIZATION CONVERGED AFTER 25 ITERATIONS ***

 final structure:
================
25
 xtb: 6.5.1 (fef0646)
N            1.02727940613566        0.89220966906140       -2.21599083065591
C            2.48291552849931        1.03326205876938       -2.25329652422971
C            3.01967973105860        1.24856769258871       -0.84174422595568
C            4.55086351890962        1.31344286898176       -0.81947262992283
C            5.07185576719734        2.47928908125377       -1.61286572035101
C            4.91295524877195        3.77593894076894       -1.13732695205828
C            5.36578216516440        4.85848076221683       -1.86900871460020
C            5.98959076343976        4.65985519086998       -3.08938661835594
C            6.15726329096572        3.37321395301259       -3.57073069661721
C            5.69916018818033        2.29210888110140       -2.83746599249956
Cl           0.28983236531039       -1.40218186177028       -0.55001926464007
H            0.64975845012488        0.72855322942539       -3.14271468532414
H            0.59595390030016        1.72599766531204       -1.83008931028692
H            0.64270330973052       -0.32310596698361       -1.32553995241952
H            2.80129855935465        1.86418066453476       -2.89858897051263
H            2.89037876016371        0.10647705227972       -2.66374615151160
H            2.67951051417217        0.42782931389634       -0.21007388657123
H            2.61049538362340        2.17829159354956       -0.44058307838119
H            4.95417982630264        0.38235872259701       -1.22092647769710
H            4.87932146341033        1.40565745504459        0.21800344861384
H            4.43502852237720        3.93651525072257       -0.18108744903367
H            5.23546356084944        5.85997318071343       -1.48531653180868
H            6.34650581482560        5.50430687787219       -3.66021890221620
H            6.64706369987348        3.21023321578313       -4.51985352393607
H            5.83425026125872        1.28971450840111       -3.21870635902857

          :  Hamiltonian                  GFN2-xTB          :
         :: total energy             -33.867419976333 Eh    ::
         :: gradient norm              0.000277838036 Eh/a0 ::
         :: HOMO-LUMO gap              4.554332361525 eV    ::
         :: SCC energy               -34.356548704770 Eh    ::
         :: -> dispersion             -0.020341394474 Eh    ::
         :: repulsion energy           0.489029573842 Eh    ::

    * Orbital Energies and Occupations

         #    Occupation            Energy/Eh            Energy/eV
      -------------------------------------------------------------
         1        2.0000           -1.0166693             -27.6650
       ...           ...                  ...                  ...
        19        2.0000           -0.4829453             -13.1416
        20        2.0000           -0.4811750             -13.0934
        21        2.0000           -0.4719815             -12.8433
        22        2.0000           -0.4659035             -12.6779
        23        2.0000           -0.4558824             -12.4052
        24        2.0000           -0.4458872             -12.1332
        25        2.0000           -0.4252879             -11.5727
        26        2.0000           -0.4240625             -11.5393
        27        2.0000           -0.4078148             -11.0972
        28        2.0000           -0.4023165             -10.9476
        29        2.0000           -0.3965323             -10.7902
        30        2.0000           -0.3937606             -10.7148
        31        2.0000           -0.3937167             -10.7136 (HOMO)
        32                         -0.2263481              -6.1592 (LUMO)
        33                         -0.2255837              -6.1384
        34                         -0.0975860              -2.6555
        35                         -0.0564726              -1.5367
        36                          0.0137468               0.3741
        37                          0.0674337               1.8350
        38                          0.0679869               1.8500
        39                          0.0734635               1.9990
        40                          0.0737252               2.0062
        41                          0.0861977               2.3456
        42                          0.0880501               2.3960
       ...                                ...                  ...
        63                          0.6604531              17.9718
      -------------------------------------------------------------
                  HL-Gap            0.1673686 Eh            4.5543 eV

     #   Z          covCN         q      C6AA      α(0)
     1   7 N        2.700    -0.305    27.850     7.838
     2   6 C        3.732     0.008    20.536     6.468
     3   6 C        3.804    -0.069    21.823     6.651
     4   6 C        3.808    -0.067    21.773     6.642
     5   6 C        2.969     0.012    27.748     8.640
     6   6 C        2.926    -0.038    28.951     8.824
     7   6 C        2.919    -0.031    28.773     8.796
     8   6 C        2.920    -0.033    28.833     8.806
     9   6 C        2.919    -0.031    28.771     8.796
    10   6 C        2.925    -0.040    28.991     8.830
    11  17 Cl       0.837    -0.488   115.250    16.423
    12   1 H        0.860     0.166     1.294     1.782
    13   1 H        0.860     0.167     1.292     1.780
    14   1 H        0.905     0.331     0.623     1.235
    15   1 H        0.923     0.027     2.633     2.538
    16   1 H        0.924     0.053     2.286     2.365
    17   1 H        0.925     0.063     2.161     2.299
    18   1 H        0.924     0.040     2.445     2.445
    19   1 H        0.924     0.042     2.425     2.435
    20   1 H        0.924     0.048     2.351     2.398
    21   1 H        0.926     0.030     2.588     2.516
    22   1 H        0.926     0.029     2.596     2.520
    23   1 H        0.926     0.029     2.600     2.521
    24   1 H        0.926     0.029     2.594     2.519
    25   1 H        0.926     0.028     2.613     2.528

Wiberg/Mayer (AO) data.
largest (>0.10) Wiberg bond orders for each atom

     #   Z sym  total        # sym  WBO       # sym  WBO       # sym  WBO
 ---------------------------------------------------------------------------
     1   7 N    3.243 --     2 C    1.004    12 H    0.959    13 H    0.958
                            14 H    0.210
     2   6 C    3.973 --     3 C    1.007     1 N    1.004    16 H    0.974
                            15 H    0.971
     3   6 C    3.994 --     2 C    1.007     4 C    0.991    18 H    0.975
                            17 H    0.972
     4   6 C    3.996 --     5 C    1.012     3 C    0.991    19 H    0.975
                            20 H    0.967
     5   6 C    3.989 --    10 C    1.415     6 C    1.409     4 C    1.012
                             8 C    0.110
     6   6 C    3.992 --     7 C    1.450     5 C    1.409    21 H    0.969
                             9 C    0.112
     7   6 C    3.993 --     6 C    1.450     8 C    1.435    22 H    0.971
                            10 C    0.110
     8   6 C    3.992 --     9 C    1.441     7 C    1.435    23 H    0.972
                             5 C    0.110
     9   6 C    3.993 --    10 C    1.442     8 C    1.441    24 H    0.971
                             6 C    0.112
    10   6 C    3.992 --     9 C    1.442     5 C    1.415    25 H    0.969
                             7 C    0.110
    11  17 Cl   0.765 --    14 H    0.675
    12   1 H    0.972 --     1 N    0.959
    13   1 H    0.972 --     1 N    0.958
    14   1 H    0.890 --    11 Cl   0.675     1 N    0.210
    15   1 H    0.999 --     2 C    0.971
    16   1 H    0.997 --     2 C    0.974
    17   1 H    0.995 --     3 C    0.972
    18   1 H    0.998 --     3 C    0.975
    19   1 H    0.998 --     4 C    0.975
    20   1 H    0.997 --     4 C    0.967
    21   1 H    0.999 --     6 C    0.969
    22   1 H    0.999 --     7 C    0.971
    23   1 H    0.999 --     8 C    0.972
    24   1 H    0.999 --     9 C    0.971
    25   1 H    0.999 --    10 C    0.969
 ---------------------------------------------------------------------------

molecular dipole:
                 x           y           z       tot (Debye)
 q only:        0.627       1.445      -0.921
   full:        0.461       1.389      -0.935       4.414

           -------------------------------------------------
          | TOTAL ENERGY              -33.867419976333 Eh   |
          | GRADIENT NORM               0.000277838036 Eh/α |
          | HOMO-LUMO GAP               4.554332361525 eV   |
           -------------------------------------------------

 * finished run on 2023/01/23 at 14:13:04.260
