   * xtb version 6.5.1 (fef0646) compiled by 'conda@b96dff2e9fd6' on 2023-01-04
          program call               : xtb init.xyz --opt -c 0 -u 0 -P 16 --input xtb.inp

   ID    Z sym.   atoms
    1    7 N      1
    2    6 C      2-10
    3   17 Cl     11
    4    1 H      12-25

          :  Hamiltonian                  GFN2-xTB          :
 * total energy  :   -33.8477223 Eh     change       -0.1564047E-09 Eh
 * total energy  :   -33.8546924 Eh     change       -0.6970043E-02 Eh
 * total energy  :   -33.8585500 Eh     change       -0.3857668E-02 Eh
 * total energy  :   -33.8612302 Eh     change       -0.2680156E-02 Eh
 * total energy  :   -33.8640302 Eh     change       -0.2799975E-02 Eh
 * total energy  :   -33.8655876 Eh     change       -0.1557456E-02 Eh
 * total energy  :   -33.8658523 Eh     change       -0.2647135E-03 Eh
 * total energy  :   -33.8661051 Eh     change       -0.2527991E-03 Eh
 * total energy  :   -33.8661526 Eh     change       -0.4749198E-04 Eh
 * total energy  :   -33.8661888 Eh     change       -0.3615756E-04 Eh
 * total energy  :   -33.8663994 Eh     change       -0.3660263E-04 Eh
 * total energy  :   -33.8664214 Eh     change       -0.2196728E-04 Eh
 * total energy  :   -33.8664457 Eh     change       -0.2428820E-04 Eh
 * total energy  :   -33.8664542 Eh     change       -0.8496668E-05 Eh
 * total energy  :   -33.8664645 Eh     change       -0.1035619E-04 Eh
 * total energy  :   -33.8664771 Eh     change       -0.1261344E-04 Eh
 * total energy  :   -33.8664856 Eh     change       -0.8451615E-05 Eh
 * total energy  :   -33.8664911 Eh     change       -0.5529221E-05 Eh
 * total energy  :   -33.8664943 Eh     change       -0.3219352E-05 Eh
   *** GEOMETRY OPTIMIZATION CONVERGED AFTER 24 ITERATIONS ***

 final structure:
================
25
 xtb: 6.5.1 (fef0646)
N            1.12418755461729       -0.48184084469612       -0.39056819803415
C            2.57648733110724       -0.36088607799796       -0.25986338906930
C            3.04637426622247        0.95021340348489       -0.88106753795796
C            4.53117274738297        1.20830938350442       -0.60608135472343
C            4.96509017692138        2.49830001446457       -1.24325297320001
C            4.66993151766907        3.71174808175380       -0.63375181255051
C            5.03333629479888        4.90607222040515       -1.22822255892582
C            5.69781341208332        4.90307995789184       -2.44340816706511
C            5.99482813880664        3.70005619029418       -3.05910220783300
C            5.62805931678989        2.50604101357386       -2.46246975276264
Cl          -0.13409936302067        1.71464452227288        1.09252501380343
H            0.78994700297529       -1.35464464133050        0.00290195978922
H            0.84710770506301       -0.43382318681982       -1.36557542474410
H            0.45460303707157        0.69286503696926        0.39105196345800
H            3.10478668972337       -1.20428844141145       -0.72781002729943
H            2.80846416585530       -0.36572959181831        0.80796005365740
H            2.45306570776383        1.76616148482161       -0.46785285492829
H            2.87847499776952        0.92622467636627       -1.96064817112054
H            5.12449917952604        0.37974795438552       -0.99903475088783
H            4.68742137481963        1.25835775528261        0.47345647130173
H            4.15265924081468        3.71723042079913        0.31487814592371
H            4.79852013551859        5.84217379800875       -0.74306321093109
H            5.98370363214236        5.83537327734401       -2.90773028658286
H            6.51381399756098        3.69077351178139       -4.00662456855568
H            5.86389174001909        1.56914008066651       -2.94788636076100

          :  Hamiltonian                  GFN2-xTB          :
         :: total energy             -33.866494337630 Eh    ::
         :: gradient norm              0.000752698166 Eh/a0 ::
         :: HOMO-LUMO gap              4.738310683718 eV    ::
         :: SCC energy               -34.355922670627 Eh    ::
         :: -> dispersion             -0.019578111131 Eh    ::
         :: repulsion energy           0.489373040571 Eh    ::

    * Orbital Energies and Occupations

         #    Occupation            Energy/Eh            Energy/eV
      -------------------------------------------------------------
         1        2.0000           -1.0174228             -27.6855
       ...           ...                  ...                  ...
        19        2.0000           -0.4790862             -13.0366
        20        2.0000           -0.4753256             -12.9343
        21        2.0000           -0.4680260             -12.7356
        22        2.0000           -0.4626524             -12.5894
        23        2.0000           -0.4576954             -12.4545
        24        2.0000           -0.4414404             -12.0122
        25        2.0000           -0.4215133             -11.4700
        26        2.0000           -0.4183987             -11.3852
        27        2.0000           -0.4016294             -10.9289
        28        2.0000           -0.4002471             -10.8913
        29        2.0000           -0.3948598             -10.7447
        30        2.0000           -0.3945101             -10.7352
        31        2.0000           -0.3944346             -10.7331 (HOMO)
        32                         -0.2203048              -5.9948 (LUMO)
        33                         -0.2198335              -5.9820
        34                         -0.0919610              -2.5024
        35                         -0.0568854              -1.5479
        36                          0.0130037               0.3538
        37                          0.0665327               1.8104
        38                          0.0669857               1.8228
        39                          0.0725557               1.9743
        40                          0.0727549               1.9798
        41                          0.0758625               2.0643
        42                          0.0943743               2.5681
       ...                                ...                  ...
        63                          0.6671907              18.1552
      -------------------------------------------------------------
                  HL-Gap            0.1741297 Eh            4.7383 eV

     #   Z          covCN         q      C6AA      α(0)
     1   7 N        2.693    -0.306    27.881     7.842
     2   6 C        3.732     0.007    20.543     6.470
     3   6 C        3.806    -0.069    21.808     6.648
     4   6 C        3.809    -0.065    21.735     6.636
     5   6 C        2.971     0.013    27.726     8.637
     6   6 C        2.925    -0.037    28.927     8.820
     7   6 C        2.919    -0.029    28.736     8.791
     8   6 C        2.920    -0.033    28.817     8.803
     9   6 C        2.919    -0.031    28.769     8.796
    10   6 C        2.925    -0.039    28.966     8.826
    11  17 Cl       0.837    -0.485   115.131    16.415
    12   1 H        0.860     0.166     1.297     1.784
    13   1 H        0.860     0.167     1.291     1.780
    14   1 H        0.899     0.332     0.622     1.234
    15   1 H        0.923     0.024     2.671     2.556
    16   1 H        0.924     0.053     2.279     2.361
    17   1 H        0.925     0.065     2.145     2.290
    18   1 H        0.924     0.037     2.485     2.465
    19   1 H        0.924     0.035     2.510     2.478
    20   1 H        0.924     0.043     2.415     2.430
    21   1 H        0.926     0.035     2.513     2.479
    22   1 H        0.926     0.031     2.567     2.506
    23   1 H        0.926     0.029     2.599     2.521
    24   1 H        0.926     0.029     2.607     2.525
    25   1 H        0.925     0.027     2.636     2.539

Wiberg/Mayer (AO) data.
largest (>0.10) Wiberg bond orders for each atom

     #   Z sym  total        # sym  WBO       # sym  WBO       # sym  WBO
 ---------------------------------------------------------------------------
     1   7 N    3.236 --     2 C    1.004    12 H    0.959    13 H    0.958
                            14 H    0.205
     2   6 C    3.973 --     3 C    1.006     1 N    1.004    16 H    0.974
                            15 H    0.973
     3   6 C    3.993 --     2 C    1.006     4 C    0.990    18 H    0.977
                            17 H    0.972
     4   6 C    3.996 --     5 C    1.010     3 C    0.990    19 H    0.975
                            20 H    0.971
     5   6 C    3.989 --    10 C    1.418     6 C    1.409     4 C    1.010
                             8 C    0.110
     6   6 C    3.992 --     7 C    1.450     5 C    1.409    21 H    0.969
                             9 C    0.112
     7   6 C    3.993 --     6 C    1.450     8 C    1.435    22 H    0.971
                            10 C    0.110
     8   6 C    3.992 --     9 C    1.442     7 C    1.435    23 H    0.972
                             5 C    0.110
     9   6 C    3.993 --     8 C    1.442    10 C    1.441    24 H    0.971
                             6 C    0.112
    10   6 C    3.992 --     9 C    1.441     5 C    1.418    25 H    0.969
                             7 C    0.110
    11  17 Cl   0.768 --    14 H    0.680
    12   1 H    0.972 --     1 N    0.959
    13   1 H    0.972 --     1 N    0.958
    14   1 H    0.890 --    11 Cl   0.680     1 N    0.205
    15   1 H    0.999 --     2 C    0.973
    16   1 H    0.997 --     2 C    0.974
    17   1 H    0.996 --     3 C    0.972
    18   1 H    0.999 --     3 C    0.977
    19   1 H    0.998 --     4 C    0.975
    20   1 H    0.998 --     4 C    0.971
    21   1 H    0.999 --     6 C    0.969
    22   1 H    0.999 --     7 C    0.971
    23   1 H    0.999 --     8 C    0.972
    24   1 H    0.999 --     9 C    0.971
    25   1 H    0.999 --    10 C    0.969
 ---------------------------------------------------------------------------

molecular dipole:
                 x           y           z       tot (Debye)
 q only:        0.938      -1.365      -0.905
   full:        0.754      -1.398      -0.877       4.611

           -------------------------------------------------
          | TOTAL ENERGY              -33.866494337630 Eh   |
          | GRADIENT NORM               0.000752698166 Eh/α |
          | HOMO-LUMO GAP               4.738310683718 eV   |
           -------------------------------------------------

 * finished run on 2023/01/23 at 19:57:04.577
