   * xtb version 6.5.1 (fef0646) compiled by 'conda@b96dff2e9fd6' on 2023-01-04
          program call               : xtb init.xyz --opt -c 1 -u 0 -P 16 --alpb water

   ID    Z sym.   atoms
    1    7 N      1, 16, 19
    2    6 C      2-15, 17, 18, 20-25
    3   16 S      26-29
    4    1 H      30-47

      * Solvation model:               ALPB
        Solvent                        water
        Solvent mass                       1.8000E+01 g/mol
          :  Hamiltonian                  GFN2-xTB          :
 * total energy  :   -77.6392885 Eh     change       -0.2159055E-08 Eh
 * total energy  :   -77.6506041 Eh     change       -0.1131556E-01 Eh
 * total energy  :   -77.6531541 Eh     change       -0.2550010E-02 Eh
 * total energy  :   -77.6535041 Eh     change       -0.3499569E-03 Eh
 * total energy  :   -77.6547808 Eh     change       -0.1276685E-02 Eh
 * total energy  :   -77.6551121 Eh     change       -0.3313521E-03 Eh
 * total energy  :   -77.6555595 Eh     change       -0.4474017E-03 Eh
 * total energy  :   -77.6559814 Eh     change       -0.4219112E-03 Eh
 * total energy  :   -77.6563296 Eh     change       -0.3482128E-03 Eh
 * total energy  :   -77.6566454 Eh     change       -0.3157159E-03 Eh
 * total energy  :   -77.6637775 Eh     change       -0.1285712E-04 Eh
 * total energy  :   -77.6637795 Eh     change       -0.2017798E-05 Eh
 * total energy  :   -77.6637796 Eh     change       -0.1123610E-06 Eh
 * total energy  :   -77.6637780 Eh     change        0.1588406E-05 Eh
 * total energy  :   -77.6637867 Eh     change       -0.8718326E-05 Eh
 * total energy  :   -77.6637635 Eh     change        0.2322291E-04 Eh
 * total energy  :   -77.6637906 Eh     change       -0.2706269E-04 Eh
 * total energy  :   -77.6637961 Eh     change       -0.5555711E-05 Eh
 * total energy  :   -77.6637989 Eh     change       -0.2729639E-05 Eh
   *** GEOMETRY OPTIMIZATION CONVERGED AFTER 74 ITERATIONS ***

 final structure:
================
47
 xtb: 6.5.1 (fef0646)
N            5.46478791802757        1.94194647698156        2.97659270536009
C            4.32705274586529        1.43426222328737        2.17742086464405
C            4.06962079583050        2.32263015683406        0.96710253654206
C            5.15624953615234        2.27261885123949       -0.05775867640995
C            5.25558305082719        3.01273090487759       -1.20133066289516
C            6.38785109892414        2.70353073185998       -1.97320962806336
C            7.17504631423130        1.72154939826687       -1.42340661229897
C            8.38042368503509        1.15202289861015       -1.91484586098202
C            9.14941559514126        0.16857534849201       -1.33741773636842
C           10.28024264246570       -0.18534212264355       -2.08299623296400
C           11.24219486003488       -1.22775190422670       -1.63760857750073
C           10.38111581896602        0.54534593171715       -3.26189852130936
C           11.36851467873006        0.46852973167897       -4.27433426755785
C           11.45534934726960        1.20163423136152       -5.45264170154613
C           10.56038315088846        2.19030178640106       -5.86834890703135
N            9.84209079486005        3.01015675714137       -6.24005202028632
C           12.58874659897399        0.85507085692124       -6.25422799676480
C           12.80847688795649        1.49370259542808       -7.47899095255589
N           12.92942345233474        2.05372152717778       -8.47713823891122
C           13.37636577774655       -0.14098705356367       -5.69665340045521
C           14.56842095926498       -0.71983249913828       -6.21112434867383
C           15.32965554361769       -1.75109951160766       -5.68418937771636
C           15.03816205519042       -2.49002822117962       -4.42574887034011
C           16.44794185103989       -2.04049398747606       -6.49479461808660
C           16.53713162334430       -1.25595461827753       -7.59958583975206
S           15.25430948611154       -0.12048087202723       -7.70895077058185
S           12.70307827543522       -0.64528379683201       -4.17721563399999
S            9.05675842800307        1.68054819377396       -3.43294022539470
S            6.49300955698321        1.16669298011195        0.06492834784514
H            5.63818190013787        1.33303284989522        3.78311029567034
H            5.27742047693629        2.89380574437766        3.30986988660943
H            6.30936049474420        1.95600769046428        2.39004176670489
H            3.43352555041746        1.40978771739650        2.79983582143807
H            4.55660125722865        0.42354517637062        1.84069253391741
H            3.91918590313163        3.36058840995556        1.27098676787404
H            3.13991428105833        2.00111769647126        0.49236328754404
H            4.53871589468445        3.75943579149222       -1.49102222498248
H            6.63489564633961        3.17487401846154       -2.90919831529987
H            8.90184974376334       -0.29150116722110       -0.39714371738171
H           10.93044493348790       -1.63365642052783       -0.68060636980780
H           12.24260265307481       -0.80973221484377       -1.53633037096477
H           11.29486025957371       -2.03732031243929       -2.36415414078104
H           14.05161833451276       -2.94965915744296       -4.46616965179529
H           15.06137267994583       -1.81745803577344       -3.56933842652045
H           15.78105032937156       -3.26778387076147       -4.27899502664206
H           17.16061535108639       -2.80917355055727       -6.25877957724420
H           17.28153178124342       -1.26887736047465       -8.37003731427976

          :  Hamiltonian                  GFN2-xTB          :
         :: total energy             -77.663798851914 Eh    ::
         :: gradient norm              0.000735092373 Eh/a0 ::
         :: HOMO-LUMO gap              1.653740235406 eV    ::
         :: SCC energy               -78.905145955795 Eh    ::
         :: -> dispersion             -0.063872946050 Eh    ::
         :: -> Gsolv                  -0.161016007953 Eh    ::
         :: repulsion energy           1.241973035264 Eh    ::

    * Orbital Energies and Occupations

         #    Occupation            Energy/Eh            Energy/eV
      -------------------------------------------------------------
         1        2.0000           -0.7596932             -20.6723
       ...           ...                  ...                  ...
        60        2.0000           -0.4554264             -12.3928
        61        2.0000           -0.4526831             -12.3181
        62        2.0000           -0.4496282             -12.2350
        63        2.0000           -0.4483573             -12.2004
        64        2.0000           -0.4429684             -12.0538
        65        2.0000           -0.4412792             -12.0078
        66        2.0000           -0.4247853             -11.5590
        67        2.0000           -0.4197354             -11.4216
        68        2.0000           -0.4081031             -11.1051
        69        2.0000           -0.4063847             -11.0583
        70        2.0000           -0.4062502             -11.0546
        71        2.0000           -0.3934731             -10.7069
        72        2.0000           -0.3697454             -10.0613 (HOMO)
        73                         -0.3089715              -8.4075 (LUMO)
        74                         -0.2972113              -8.0875
        75                         -0.2645539              -7.1989
        76                         -0.2473667              -6.7312
        77                         -0.2394360              -6.5154
        78                         -0.2367893              -6.4434
        79                         -0.2284396              -6.2162
        80                         -0.2218095              -6.0357
        81                         -0.2197705              -5.9803
        82                         -0.2087406              -5.6801
        83                         -0.1941067              -5.2819
       ...                                ...                  ...
       154                          1.1706045              31.8538
      -------------------------------------------------------------
                  HL-Gap            0.0607738 Eh            1.6537 eV

     #   Z          covCN         q      C6AA      α(0)
     1   7 N        3.485    -0.165    24.549     7.359
     2   6 C        3.734    -0.049    21.552     6.626
     3   6 C        3.821    -0.095    22.302     6.721
     4   6 C        2.983     0.030    27.322     8.574
     5   6 C        3.113    -0.062    29.371     8.878
     6   6 C        3.120    -0.046    28.958     8.813
     7   6 C        3.021     0.004    27.903     8.665
     8   6 C        3.026     0.035    27.185     8.552
     9   6 C        3.090    -0.066    29.535     8.908
    10   6 C        3.110     0.017    27.490     8.590
    11   6 C        3.758    -0.137    23.188     6.865
    12   6 C        3.022     0.005    27.876     8.661
    13   6 C        3.014     0.024    27.449     8.594
    14   6 C        3.151    -0.017    28.136     8.676
    15   6 C        1.910     0.120    28.147     8.568
    16   7 N        0.911    -0.312    28.018     7.656
    17   6 C        3.153    -0.014    28.055     8.662
    18   6 C        1.908     0.119    28.171     8.572
    19   7 N        0.911    -0.306    27.880     7.637
    20   6 C        3.010     0.024    27.456     8.595
    21   6 C        3.026     0.006    27.865     8.659
    22   6 C        3.122     0.014    27.526     8.592
    23   6 C        3.758    -0.133    23.115     6.855
    24   6 C        3.108    -0.054    29.196     8.853
    25   6 C        2.933    -0.013    28.340     8.731
    26  16 S        2.300    -0.069   143.935    20.192
    27  16 S        2.366     0.042   139.358    19.869
    28  16 S        2.315    -0.104   145.406    20.295
    29  16 S        2.379     0.004   140.895    19.978
    30   1 H        0.859     0.324     0.647     1.260
    31   1 H        0.859     0.313     0.675     1.287
    32   1 H        0.859     0.305     0.699     1.310
    33   1 H        0.925     0.130     1.535     1.937
    34   1 H        0.925     0.130     1.534     1.937
    35   1 H        0.924     0.109     1.705     2.042
    36   1 H        0.924     0.108     1.714     2.047
    37   1 H        0.926     0.050     2.315     2.379
    38   1 H        0.926     0.019     2.753     2.594
    39   1 H        0.926     0.086     1.915     2.164
    40   1 H        0.925     0.088     1.896     2.153
    41   1 H        0.925     0.078     1.995     2.209
    42   1 H        0.925     0.077     2.010     2.217
    43   1 H        0.925     0.080     1.977     2.199
    44   1 H        0.925     0.083     1.948     2.183
    45   1 H        0.925     0.079     1.991     2.206
    46   1 H        0.926     0.070     2.086     2.259
    47   1 H        0.926     0.068     2.107     2.270

Wiberg/Mayer (AO) data.
largest (>0.10) Wiberg bond orders for each atom

     #   Z sym  total        # sym  WBO       # sym  WBO       # sym  WBO
 ---------------------------------------------------------------------------
     1   7 N    3.649 --     2 C    0.971    31 H    0.887    30 H    0.882
                            32 H    0.880
     2   6 C    3.925 --     3 C    1.013     1 N    0.971    33 H    0.961
                            34 H    0.955
     3   6 C    3.982 --     4 C    1.027     2 C    1.013    35 H    0.945
                            36 H    0.939
     4   6 C    3.922 --     5 C    1.557    29 S    1.163     3 C    1.027
     5   6 C    3.982 --     4 C    1.557     6 C    1.315    37 H    0.962
     6   6 C    3.968 --     7 C    1.494     5 C    1.315    38 H    0.962
     7   6 C    3.953 --     6 C    1.494     8 C    1.174    29 S    1.109
     8   6 C    3.928 --     9 C    1.460     7 C    1.174    28 S    1.121
     9   6 C    3.974 --     8 C    1.460    10 C    1.329    39 H    0.955
    10   6 C    3.972 --    12 C    1.398     9 C    1.329    11 C    1.038
    11   6 C    3.986 --    10 C    1.038    40 H    0.975    41 H    0.953
                            42 H    0.953
    12   6 C    3.922 --    10 C    1.398    13 C    1.217    28 S    1.096
    13   6 C    3.948 --    14 C    1.372    12 C    1.217    27 S    1.129
    14   6 C    3.956 --    13 C    1.372    17 C    1.162    15 C    1.138
    15   6 C    3.939 --    16 N    2.730    14 C    1.138
    16   7 N    2.969 --    15 C    2.730
    17   6 C    3.972 --    20 C    1.392    14 C    1.162    18 C    1.130
    18   6 C    3.939 --    19 N    2.740    17 C    1.130
    19   7 N    2.968 --    18 C    2.740
    20   6 C    3.950 --    17 C    1.392    21 C    1.196    27 S    1.132
    21   6 C    3.937 --    22 C    1.436    20 C    1.196    26 S    1.105
    22   6 C    3.957 --    21 C    1.436    24 C    1.282    23 C    1.037
    23   6 C    3.987 --    22 C    1.037    45 H    0.977    43 H    0.955
                            44 H    0.953
    24   6 C    3.983 --    25 C    1.597    22 C    1.282    46 H    0.960
    25   6 C    3.930 --    24 C    1.597    26 S    1.201    47 H    0.966
    26  16 S    2.612 --    25 C    1.201    21 C    1.105
    27  16 S    2.662 --    20 C    1.132    13 C    1.129
    28  16 S    2.561 --     8 C    1.121    12 C    1.096
    29  16 S    2.597 --     4 C    1.163     7 C    1.109
    30   1 H    0.895 --     1 N    0.882
    31   1 H    0.902 --     1 N    0.887
    32   1 H    0.907 --     1 N    0.880
    33   1 H    0.983 --     2 C    0.961
    34   1 H    0.983 --     2 C    0.955
    35   1 H    0.985 --     3 C    0.945
    36   1 H    0.985 --     3 C    0.939
    37   1 H    0.997 --     5 C    0.962
    38   1 H    0.999 --     6 C    0.962
    39   1 H    0.992 --     9 C    0.955
    40   1 H    0.991 --    11 C    0.975
    41   1 H    0.992 --    11 C    0.953
    42   1 H    0.992 --    11 C    0.953
    43   1 H    0.992 --    23 C    0.955
    44   1 H    0.992 --    23 C    0.953
    45   1 H    0.992 --    23 C    0.977
    46   1 H    0.995 --    24 C    0.960
    47   1 H    0.994 --    25 C    0.966
 ---------------------------------------------------------------------------

molecular dipole:
                 x           y           z       tot (Debye)
 q only:       10.023       0.244      10.290
   full:       10.850       0.374       8.997      35.839

           -------------------------------------------------
          | TOTAL ENERGY              -77.663798851914 Eh   |
          | GRADIENT NORM               0.000735092373 Eh/α |
          | HOMO-LUMO GAP               1.653740235406 eV   |
           -------------------------------------------------

 * finished run on 2023/01/24 at 15:35:38.154
