   * xtb version 6.5.1 (fef0646) compiled by 'conda@b96dff2e9fd6' on 2023-01-04
          program call               : xtb init.xyz --opt -c 1 -u 0 -P 16 --input xtb.inp

   ID    Z sym.   atoms
    1    7 N      1, 16, 19
    2    6 C      2-15, 17, 18, 20-25
    3   16 S      26-29
    4    1 H      30-47

          :  Hamiltonian                  GFN2-xTB          :
 * total energy  :   -77.5130115 Eh     change       -0.1444917E-08 Eh
 * total energy  :   -77.5232277 Eh     change       -0.1021619E-01 Eh
 * total energy  :   -77.5254045 Eh     change       -0.2176775E-02 Eh
 * total energy  :   -77.5261463 Eh     change       -0.7417774E-03 Eh
 * total energy  :   -77.5273594 Eh     change       -0.1213134E-02 Eh
 * total energy  :   -77.5278654 Eh     change       -0.5060480E-03 Eh
 * total energy  :   -77.5284782 Eh     change       -0.6127913E-03 Eh
 * total energy  :   -77.5289569 Eh     change       -0.4786971E-03 Eh
 * total energy  :   -77.5292989 Eh     change       -0.3419386E-03 Eh
 * total energy  :   -77.5295847 Eh     change       -0.2858730E-03 Eh
 * total energy  :   -77.5343089 Eh     change       -0.1247639E-04 Eh
 * total energy  :   -77.5343175 Eh     change       -0.8631814E-05 Eh
 * total energy  :   -77.5343233 Eh     change       -0.5785227E-05 Eh
 * total energy  :   -77.5343294 Eh     change       -0.6061564E-05 Eh
 * total energy  :   -77.5343355 Eh     change       -0.6147210E-05 Eh
 * total energy  :   -77.5343417 Eh     change       -0.6190413E-05 Eh
 * total energy  :   -77.5343479 Eh     change       -0.6215519E-05 Eh
 * total energy  :   -77.5343531 Eh     change       -0.5158918E-05 Eh
 * total energy  :   -77.5343571 Eh     change       -0.4024017E-05 Eh
   *** GEOMETRY OPTIMIZATION CONVERGED AFTER 63 ITERATIONS ***

 final structure:
================
47
 xtb: 6.5.1 (fef0646)
N            4.80776153339331        1.84993065435635        4.03072225036782
C            4.45884956672711        0.43559649225927        3.71868097323002
C            3.95395096631789        0.38947945239544        2.26924099291066
C            4.96846713289723        1.04027900549980        1.38813300157471
C            5.11349695509370        2.38975974095794        1.15739926661917
C            6.26392757955187        2.69924558142729        0.41098767971719
C            7.01832653956003        1.59514138646402        0.09592529747961
C            8.22884296569488        1.55571779444482       -0.64782522796795
C            8.95084470743556        0.46368251272298       -1.07122048308238
C           10.09956660905352        0.78688284384272       -1.80344174564892
C           11.01586751284887       -0.24751725243967       -2.36025910155233
C           10.27007630925779        2.16065545146828       -1.93281022180667
C           11.30185444072291        2.87949616532326       -2.59835442089482
C           11.53751280941156        4.24694620048430       -2.56755802243837
C           10.80349905868742        5.17654235627492       -1.81147582821813
N           10.22552906046556        5.94844257437359       -1.18952403392006
C           12.64269300560828        4.65029580573880       -3.36541240765936
C           13.01422627514519        6.00477137175939       -3.43234323450052
N           13.26638539319267        7.12333350010506       -3.44164040417192
C           13.26415365853298        3.59558110469231       -4.02216517075048
C           14.38211049540125        3.64498638472751       -4.89763628185711
C           15.00973907585514        2.60342285587248       -5.56771932146674
C           14.62047139692393        1.16758407087540       -5.49775450003212
C           16.08827560638398        3.05993284691060       -6.34905299727884
C           16.27788521007613        4.40560845520697       -6.27856566316238
S           15.14887924181098        5.17642915624027       -5.25454948051350
S           12.46995417561050        2.09753274614964       -3.62842987807595
S            8.98611096566671        3.03793026986456       -1.14883896807103
S            6.29670390920805        0.14096100977748        0.72629153075641
H            5.48599130049761        1.93479141817923        4.79283906705135
H            3.97133929572182        2.39433845536266        4.26669669729366
H            5.20720727606340        2.23048741787450        3.11729860120110
H            3.70954242502360        0.06676168234052        4.41750753043208
H            5.36126224902515       -0.17051001864454        3.80646838953861
H            2.99625508877102        0.90701856897191        2.18741198161763
H            3.80345333274412       -0.64907890801000        1.97961769988461
H            4.36304044863916        3.12765665215093        1.39291344717059
H            6.53300912800616        3.69122914644134        0.09861141478552
H            8.65209097990512       -0.54943956036631       -0.86236844361546
H           10.71136451472540       -1.23379771928243       -2.02063598457437
H           12.04321553456326       -0.07051265923058       -2.04416401982265
H           10.99427516604922       -0.23547493014517       -3.44995853130473
H           13.59526362363546        1.02410826792601       -5.84080309605406
H           14.68839827518030        0.79336633346285       -4.47568574227672
H           15.28036211121512        0.57598364102908       -6.12628635523010
H           16.70081694293899        2.40608237966834       -6.94323450361617
H           17.02370015074074        4.99471929449041       -6.77429175205799

          :  Hamiltonian                  GFN2-xTB          :
         :: total energy             -77.534357098662 Eh    ::
         :: gradient norm              0.000391836544 Eh/a0 ::
         :: HOMO-LUMO gap              1.453150024711 eV    ::
         :: SCC energy               -78.769083743339 Eh    ::
         :: -> dispersion             -0.064433645454 Eh    ::
         :: repulsion energy           1.235315672613 Eh    ::

    * Orbital Energies and Occupations

         #    Occupation            Energy/Eh            Energy/eV
      -------------------------------------------------------------
         1        2.0000           -0.8760110             -23.8375
       ...           ...                  ...                  ...
        60        2.0000           -0.5285119             -14.3815
        61        2.0000           -0.5272745             -14.3479
        62        2.0000           -0.5168127             -14.0632
        63        2.0000           -0.5164234             -14.0526
        64        2.0000           -0.5116100             -13.9216
        65        2.0000           -0.5055042             -13.7555
        66        2.0000           -0.4926204             -13.4049
        67        2.0000           -0.4865614             -13.2400
        68        2.0000           -0.4829855             -13.1427
        69        2.0000           -0.4816471             -13.1063
        70        2.0000           -0.4722388             -12.8503
        71        2.0000           -0.4620364             -12.5727
        72        2.0000           -0.4419928             -12.0272 (HOMO)
        73                         -0.3885905             -10.5741 (LUMO)
        74                         -0.3594158              -9.7802
        75                         -0.3469747              -9.4417
        76                         -0.3236060              -8.8058
        77                         -0.3161730              -8.6035
        78                         -0.3054111              -8.3107
        79                         -0.2989568              -8.1350
        80                         -0.2911318              -7.9221
        81                         -0.2837412              -7.7210
        82                         -0.2808177              -7.6414
        83                         -0.2660814              -7.2404
       ...                                ...                  ...
       154                          1.1338722              30.8542
      -------------------------------------------------------------
                  HL-Gap            0.0534023 Eh            1.4532 eV

     #   Z          covCN         q      C6AA      α(0)
     1   7 N        3.481    -0.148    24.190     7.305
     2   6 C        3.735    -0.032    21.238     6.577
     3   6 C        3.825    -0.089    22.171     6.700
     4   6 C        2.987    -0.011    28.276     8.723
     5   6 C        3.092    -0.078    29.835     8.953
     6   6 C        3.094    -0.061    29.388     8.885
     7   6 C        3.028     0.025    27.411     8.588
     8   6 C        3.017     0.011    27.753     8.642
     9   6 C        3.100    -0.052    29.161     8.849
    10   6 C        3.121     0.007    27.696     8.619
    11   6 C        3.756    -0.113    22.711     6.795
    12   6 C        3.018     0.014    27.677     8.630
    13   6 C        3.019     0.018    27.583     8.615
    14   6 C        3.149     0.002    27.704     8.610
    15   6 C        1.912     0.116    28.239     8.582
    16   7 N        0.911    -0.220    25.804     7.347
    17   6 C        3.147    -0.001    27.780     8.622
    18   6 C        1.908     0.113    28.323     8.595
    19   7 N        0.911    -0.209    25.556     7.311
    20   6 C        3.013     0.032    27.275     8.567
    21   6 C        3.023    -0.001    28.021     8.683
    22   6 C        3.128     0.010    27.591     8.600
    23   6 C        3.757    -0.111    22.670     6.789
    24   6 C        3.114    -0.049    29.045     8.828
    25   6 C        2.935    -0.012    28.308     8.726
    26  16 S        2.312     0.019   140.290    19.935
    27  16 S        2.345     0.003   140.947    19.982
    28  16 S        2.349    -0.012   141.547    20.024
    29  16 S        2.323    -0.005   141.277    20.005
    30   1 H        0.859     0.260     0.846     1.440
    31   1 H        0.859     0.260     0.844     1.439
    32   1 H        0.855     0.278     0.782     1.386
    33   1 H        0.925     0.104     1.745     2.066
    34   1 H        0.924     0.107     1.723     2.053
    35   1 H        0.924     0.078     2.004     2.214
    36   1 H        0.925     0.099     1.791     2.093
    37   1 H        0.926     0.044     2.401     2.423
    38   1 H        0.926     0.063     2.160     2.298
    39   1 H        0.926     0.050     2.322     2.383
    40   1 H        0.925     0.061     2.189     2.314
    41   1 H        0.925     0.062     2.181     2.309
    42   1 H        0.925     0.065     2.145     2.290
    43   1 H        0.924     0.059     2.208     2.324
    44   1 H        0.924     0.059     2.213     2.326
    45   1 H        0.925     0.064     2.156     2.296
    46   1 H        0.926     0.055     2.257     2.349
    47   1 H        0.926     0.066     2.134     2.284

Wiberg/Mayer (AO) data.
largest (>0.10) Wiberg bond orders for each atom

     #   Z sym  total        # sym  WBO       # sym  WBO       # sym  WBO
 ---------------------------------------------------------------------------
     1   7 N    3.659 --     2 C    0.942    30 H    0.919    31 H    0.918
                            32 H    0.814
     2   6 C    3.901 --     3 C    0.987    34 H    0.968    33 H    0.968
                             1 N    0.942
     3   6 C    3.981 --     4 C    1.024     2 C    0.987    35 H    0.964
                            36 H    0.960
     4   6 C    3.915 --     5 C    1.496    29 S    1.168     3 C    1.024
     5   6 C    3.983 --     4 C    1.496     6 C    1.304    37 H    0.955
     6   6 C    3.963 --     7 C    1.493     5 C    1.304    38 H    0.959
     7   6 C    3.951 --     6 C    1.493     8 C    1.175    29 S    1.127
     8   6 C    3.934 --     9 C    1.456     7 C    1.175    28 S    1.125
     9   6 C    3.982 --     8 C    1.456    10 C    1.337    39 H    0.960
    10   6 C    3.970 --    12 C    1.407     9 C    1.337    11 C    1.031
    11   6 C    3.992 --    10 C    1.031    40 H    0.980    41 H    0.963
                            42 H    0.960
    12   6 C    3.935 --    10 C    1.407    13 C    1.194    28 S    1.133
    13   6 C    3.944 --    14 C    1.386    12 C    1.194    27 S    1.125
    14   6 C    3.969 --    13 C    1.386    17 C    1.202    15 C    1.111
    15   6 C    3.949 --    16 N    2.774    14 C    1.111
    16   7 N    3.003 --    15 C    2.774
    17   6 C    3.974 --    20 C    1.381    14 C    1.202    18 C    1.108
    18   6 C    3.950 --    19 N    2.783    17 C    1.108
    19   7 N    3.008 --    18 C    2.783
    20   6 C    3.942 --    17 C    1.381    21 C    1.204    27 S    1.137
    21   6 C    3.941 --    22 C    1.422    20 C    1.204    26 S    1.119
    22   6 C    3.971 --    21 C    1.422    24 C    1.300    23 C    1.034
    23   6 C    3.993 --    22 C    1.034    45 H    0.979    44 H    0.960
                            43 H    0.960
    24   6 C    3.983 --    25 C    1.577    22 C    1.300    46 H    0.962
    25   6 C    3.935 --    24 C    1.577    26 S    1.229    47 H    0.967
    26  16 S    2.658 --    25 C    1.229    21 C    1.119
    27  16 S    2.655 --    20 C    1.137    13 C    1.125
    28  16 S    2.613 --    12 C    1.133     8 C    1.125
    29  16 S    2.597 --     4 C    1.168     7 C    1.127
    30   1 H    0.932 --     1 N    0.919
    31   1 H    0.932 --     1 N    0.918
    32   1 H    0.922 --     1 N    0.814
    33   1 H    0.988 --     2 C    0.968
    34   1 H    0.989 --     2 C    0.968
    35   1 H    0.993 --     3 C    0.964
    36   1 H    0.989 --     3 C    0.960
    37   1 H    0.998 --     5 C    0.955
    38   1 H    0.996 --     6 C    0.959
    39   1 H    0.997 --     9 C    0.960
    40   1 H    0.995 --    11 C    0.980
    41   1 H    0.994 --    11 C    0.963
    42   1 H    0.994 --    11 C    0.960
    43   1 H    0.995 --    23 C    0.960
    44   1 H    0.995 --    23 C    0.960
    45   1 H    0.995 --    23 C    0.979
    46   1 H    0.996 --    24 C    0.962
    47   1 H    0.995 --    25 C    0.967
 ---------------------------------------------------------------------------

molecular dipole:
                 x           y           z       tot (Debye)
 q only:       11.509       0.787       4.656
   full:       11.832       0.446       4.254      31.979

           -------------------------------------------------
          | TOTAL ENERGY              -77.534357098662 Eh   |
          | GRADIENT NORM               0.000391836544 Eh/α |
          | HOMO-LUMO GAP               1.453150024711 eV   |
           -------------------------------------------------

 * finished run on 2023/01/23 at 19:18:44.532
