   * xtb version 6.5.1 (fef0646) compiled by 'conda@b96dff2e9fd6' on 2023-01-04
          program call               : xtb init.xyz --opt -c 1 -u 0 -P 16 --alpb water

   ID    Z sym.   atoms
    1    7 N      1
    2    6 C      2-9
    3    1 H      10-21

      * Solvation model:               ALPB
        Solvent                        water
        Solvent mass                       1.8000E+01 g/mol
          :  Hamiltonian                  GFN2-xTB          :
 * total energy  :   -25.8290870 Eh     change       -0.2264855E-10 Eh
 * total energy  :   -25.8310175 Eh     change       -0.1930528E-02 Eh
 * total energy  :   -25.8312162 Eh     change       -0.1986802E-03 Eh
 * total energy  :   -25.8312457 Eh     change       -0.2945736E-04 Eh
 * total energy  :   -25.8312622 Eh     change       -0.1649883E-04 Eh
 * total energy  :   -25.8312707 Eh     change       -0.8477881E-05 Eh
 * total energy  :   -25.8312840 Eh     change       -0.1333829E-04 Eh
 * total energy  :   -25.8312880 Eh     change       -0.3968342E-05 Eh
   *** GEOMETRY OPTIMIZATION CONVERGED AFTER 8 ITERATIONS ***

 final structure:
================
21
 xtb: 6.5.1 (fef0646)
N            3.73415019821418       -0.86950855425337       -0.29123115880152
C            2.50964270127654       -0.06685080964416        0.01141984892390
C            1.69409190568897       -0.79221343404862        1.07485164296262
C            2.90616641641902        1.32212783280328        0.45479926412233
C            2.45682026180680        2.43273505678555       -0.24693528386394
C            2.80583858948752        3.70888267798874        0.16066447495404
C            3.61232946320022        3.88647141947147        1.27201748382185
C            4.06356259213660        2.78331427801131        1.97807450592671
C            3.71215585007927        1.50847161978071        1.57293195092929
H            3.47433261427956       -1.81928049887367       -0.58330347690239
H            4.32135754982075       -0.93697849988915        0.54881125664174
H            4.28529781362052       -0.42854863681827       -1.03695696184761
H            1.92064847924158        0.00975343783657       -0.90596923776692
H            2.26115783201344       -0.91445609515325        1.99284503614850
H            1.37294490662021       -1.76761282556474        0.72050211500866
H            0.80550109354607       -0.21512544591909        1.31191439681148
H            1.82487929122311        2.30854990680857       -1.11340268416726
H            2.45112083086266        4.56718583765695       -0.38982266717849
H            3.88707920794034        4.88176143458687        1.58807280794289
H            4.68860694982315        2.92096440745199        2.84737217801070
H            4.06223545269949        0.66943689098228        2.15443450832343

          :  Hamiltonian                  GFN2-xTB          :
         :: total energy             -25.831287961450 Eh    ::
         :: gradient norm              0.000713376518 Eh/a0 ::
         :: HOMO-LUMO gap              4.753721775577 eV    ::
         :: SCC energy               -26.284634901272 Eh    ::
         :: -> dispersion             -0.015124738715 Eh    ::
         :: -> Gsolv                  -0.112725880718 Eh    ::
         :: repulsion energy           0.453259207592 Eh    ::

    * Orbital Energies and Occupations

         #    Occupation            Energy/Eh            Energy/eV
      -------------------------------------------------------------
         1        2.0000           -0.6969489             -18.9649
       ...           ...                  ...                  ...
        12        2.0000           -0.5268445             -14.3362
        13        2.0000           -0.5117575             -13.9256
        14        2.0000           -0.4991388             -13.5823
        15        2.0000           -0.4908612             -13.3570
        16        2.0000           -0.4852289             -13.2038
        17        2.0000           -0.4813076             -13.0970
        18        2.0000           -0.4747887             -12.9197
        19        2.0000           -0.4685352             -12.7495
        20        2.0000           -0.4546789             -12.3724
        21        2.0000           -0.4302802             -11.7085
        22        2.0000           -0.4256877             -11.5836
        23        2.0000           -0.4103091             -11.1651
        24        2.0000           -0.4089749             -11.1288 (HOMO)
        25                         -0.2342788              -6.3751 (LUMO)
        26                         -0.2287529              -6.2247
        27                         -0.1055930              -2.8733
        28                         -0.0439121              -1.1949
        29                          0.0483517               1.3157
        30                          0.0645453               1.7564
        31                          0.0970256               2.6402
        32                          0.1052853               2.8650
        33                          0.1197614               3.2589
        34                          0.1507143               4.1011
        35                          0.1720100               4.6806
       ...                                ...                  ...
        48                          0.6576614              17.8959
      -------------------------------------------------------------
                  HL-Gap            0.1746961 Eh            4.7537 eV

     #   Z          covCN         q      C6AA      α(0)
     1   7 N        3.487    -0.169    24.643     7.373
     2   6 C        3.786     0.027    20.136     6.392
     3   6 C        3.756    -0.149    23.440     6.903
     4   6 C        2.973     0.003    27.946     8.671
     5   6 C        2.924    -0.042    29.050     8.839
     6   6 C        2.919    -0.031    28.782     8.798
     7   6 C        2.920    -0.031    28.782     8.798
     8   6 C        2.919    -0.033    28.825     8.804
     9   6 C        2.923    -0.044    29.087     8.844
    10   1 H        0.859     0.316     0.669     1.281
    11   1 H        0.859     0.302     0.707     1.317
    12   1 H        0.859     0.310     0.684     1.296
    13   1 H        0.924     0.105     1.744     2.065
    14   1 H        0.925     0.077     2.015     2.220
    15   1 H        0.925     0.079     1.989     2.205
    16   1 H        0.925     0.070     2.087     2.259
    17   1 H        0.926     0.052     2.291     2.367
    18   1 H        0.926     0.032     2.561     2.502
    19   1 H        0.926     0.026     2.642     2.542
    20   1 H        0.926     0.037     2.489     2.467
    21   1 H        0.926     0.065     2.144     2.290

Wiberg/Mayer (AO) data.
largest (>0.10) Wiberg bond orders for each atom

     #   Z sym  total        # sym  WBO       # sym  WBO       # sym  WBO
 ---------------------------------------------------------------------------
     1   7 N    3.650 --     2 C    0.941    12 H    0.890    11 H    0.889
                            10 H    0.885
     2   6 C    3.936 --     3 C    1.004     4 C    0.995    13 H    0.957
                             1 N    0.941
     3   6 C    3.981 --     2 C    1.004    14 H    0.978    15 H    0.978
                            16 H    0.978
     4   6 C    3.987 --     5 C    1.417     9 C    1.410     2 C    0.995
                             7 C    0.109
     5   6 C    3.990 --     6 C    1.440     4 C    1.417    17 H    0.967
                             8 C    0.111
     6   6 C    3.992 --     7 C    1.443     5 C    1.440    18 H    0.971
                             9 C    0.112
     7   6 C    3.992 --     6 C    1.443     8 C    1.436    19 H    0.972
                             4 C    0.109
     8   6 C    3.992 --     9 C    1.447     7 C    1.436    20 H    0.971
                             5 C    0.111
     9   6 C    3.989 --     8 C    1.447     4 C    1.410    21 H    0.962
                             6 C    0.112
    10   1 H    0.900 --     1 N    0.885
    11   1 H    0.909 --     1 N    0.889
    12   1 H    0.904 --     1 N    0.890
    13   1 H    0.989 --     2 C    0.957
    14   1 H    0.994 --     3 C    0.978
    15   1 H    0.993 --     3 C    0.978
    16   1 H    0.995 --     3 C    0.978
    17   1 H    0.997 --     5 C    0.967
    18   1 H    0.999 --     6 C    0.971
    19   1 H    0.999 --     7 C    0.972
    20   1 H    0.998 --     8 C    0.971
    21   1 H    0.996 --     9 C    0.962
 ---------------------------------------------------------------------------

molecular dipole:
                 x           y           z       tot (Debye)
 q only:        6.751      -1.702      -0.370
   full:        6.846      -1.530      -0.355      17.852

           -------------------------------------------------
          | TOTAL ENERGY              -25.831287961450 Eh   |
          | GRADIENT NORM               0.000713376518 Eh/α |
          | HOMO-LUMO GAP               4.753721775577 eV   |
           -------------------------------------------------

 * finished run on 2023/01/24 at 16:54:31.095
