   * xtb version 6.5.1 (fef0646) compiled by 'conda@b96dff2e9fd6' on 2023-01-04
          program call               : xtb init.xyz --opt -c 1 -u 0 -P 16 --alpb water

   ID    Z sym.   atoms
    1    7 N      1
    2    6 C      2-9
    3    1 H      10-21

      * Solvation model:               ALPB
        Solvent                        water
        Solvent mass                       1.8000E+01 g/mol
          :  Hamiltonian                  GFN2-xTB          :
 * total energy  :   -25.8290278 Eh     change       -0.2414069E-10 Eh
 * total energy  :   -25.8309913 Eh     change       -0.1963450E-02 Eh
 * total energy  :   -25.8312002 Eh     change       -0.2089247E-03 Eh
 * total energy  :   -25.8312354 Eh     change       -0.3523671E-04 Eh
 * total energy  :   -25.8312564 Eh     change       -0.2100657E-04 Eh
 * total energy  :   -25.8312674 Eh     change       -0.1093085E-04 Eh
 * total energy  :   -25.8312847 Eh     change       -0.1736738E-04 Eh
 * total energy  :   -25.8312909 Eh     change       -0.6223727E-05 Eh
 * total energy  :   -25.8312948 Eh     change       -0.3852000E-05 Eh
   *** GEOMETRY OPTIMIZATION CONVERGED AFTER 9 ITERATIONS ***

 final structure:
================
21
 xtb: 6.5.1 (fef0646)
N            1.16826759748572        0.28901435560687       -0.73586197718165
C            2.47571546698162       -0.01923371744859       -0.07939301515882
C            2.30442806550154        0.07155043933115        1.43203092644129
C            2.95623692260645       -1.38500967442715       -0.51231140774343
C            4.18016063189392       -1.52029124394755       -1.15403187473789
C            4.63330842336893       -2.76847292387103       -1.54545951579011
C            3.86378725699691       -3.89372702711780       -1.30281306077893
C            2.64236979724990       -3.76683803683643       -0.66163918422529
C            2.19105516819951       -2.52031577277151       -0.26723804747689
H            0.83695773791430        1.21827679717278       -0.45069342434669
H            0.46499725462289       -0.40557212340356       -0.45716645977416
H            1.25924016317828        0.26478816348714       -1.75807426195203
H            3.20159904706677        0.72905789454414       -0.40675568451771
H            1.57121971515137       -0.64454280954655        1.79070394250161
H            2.00279690366637        1.07166170518442        1.72975763072339
H            3.24787262710940       -0.15118999544317        1.92115562349073
H            4.79056342256693       -0.65105306043871       -1.34724754063645
H            5.58715165054597       -2.86475173245086       -2.04194842785720
H            4.21644463249211       -4.86709461396372       -1.60933910964000
H            2.04408920160471       -4.64418780337196       -0.46762959960681
H            1.24446831379644       -2.45455882028790        0.24675446826706

          :  Hamiltonian                  GFN2-xTB          :
         :: total energy             -25.831294794045 Eh    ::
         :: gradient norm              0.000340096194 Eh/a0 ::
         :: HOMO-LUMO gap              4.753710007264 eV    ::
         :: SCC energy               -26.284717915023 Eh    ::
         :: -> dispersion             -0.015122221983 Eh    ::
         :: -> Gsolv                  -0.112746700506 Eh    ::
         :: repulsion energy           0.453335392214 Eh    ::

    * Orbital Energies and Occupations

         #    Occupation            Energy/Eh            Energy/eV
      -------------------------------------------------------------
         1        2.0000           -0.6969314             -18.9645
       ...           ...                  ...                  ...
        12        2.0000           -0.5268540             -14.3364
        13        2.0000           -0.5116904             -13.9238
        14        2.0000           -0.4990983             -13.5812
        15        2.0000           -0.4907937             -13.3552
        16        2.0000           -0.4852453             -13.2042
        17        2.0000           -0.4812618             -13.0958
        18        2.0000           -0.4747729             -12.9192
        19        2.0000           -0.4684867             -12.7482
        20        2.0000           -0.4546308             -12.3711
        21        2.0000           -0.4302567             -11.7079
        22        2.0000           -0.4256648             -11.5829
        23        2.0000           -0.4102801             -11.1643
        24        2.0000           -0.4089838             -11.1290 (HOMO)
        25                         -0.2342882              -6.3753 (LUMO)
        26                         -0.2287392              -6.2243
        27                         -0.1056222              -2.8741
        28                         -0.0437637              -1.1909
        29                          0.0487487               1.3265
        30                          0.0643580               1.7513
        31                          0.0970900               2.6420
        32                          0.1055707               2.8727
        33                          0.1198157               3.2604
        34                          0.1507109               4.1011
        35                          0.1720778               4.6825
       ...                                ...                  ...
        48                          0.6575909              17.8940
      -------------------------------------------------------------
                  HL-Gap            0.1746956 Eh            4.7537 eV

     #   Z          covCN         q      C6AA      α(0)
     1   7 N        3.486    -0.169    24.640     7.372
     2   6 C        3.786     0.027    20.137     6.392
     3   6 C        3.756    -0.149    23.439     6.903
     4   6 C        2.972     0.003    27.948     8.672
     5   6 C        2.924    -0.042    29.053     8.839
     6   6 C        2.919    -0.031    28.782     8.798
     7   6 C        2.920    -0.031    28.782     8.798
     8   6 C        2.919    -0.033    28.825     8.804
     9   6 C        2.923    -0.044    29.085     8.844
    10   1 H        0.859     0.316     0.669     1.281
    11   1 H        0.859     0.302     0.706     1.316
    12   1 H        0.859     0.310     0.685     1.297
    13   1 H        0.924     0.105     1.743     2.065
    14   1 H        0.925     0.076     2.017     2.221
    15   1 H        0.925     0.079     1.988     2.205
    16   1 H        0.925     0.070     2.086     2.259
    17   1 H        0.926     0.052     2.290     2.367
    18   1 H        0.926     0.032     2.560     2.502
    19   1 H        0.926     0.026     2.642     2.542
    20   1 H        0.926     0.037     2.490     2.468
    21   1 H        0.926     0.065     2.143     2.289

Wiberg/Mayer (AO) data.
largest (>0.10) Wiberg bond orders for each atom

     #   Z sym  total        # sym  WBO       # sym  WBO       # sym  WBO
 ---------------------------------------------------------------------------
     1   7 N    3.650 --     2 C    0.940    12 H    0.890    11 H    0.889
                            10 H    0.885
     2   6 C    3.936 --     3 C    1.004     4 C    0.995    13 H    0.957
                             1 N    0.940
     3   6 C    3.981 --     2 C    1.004    14 H    0.978    15 H    0.978
                            16 H    0.978
     4   6 C    3.987 --     5 C    1.417     9 C    1.410     2 C    0.995
                             7 C    0.109
     5   6 C    3.990 --     6 C    1.440     4 C    1.417    17 H    0.967
                             8 C    0.111
     6   6 C    3.992 --     7 C    1.442     5 C    1.440    18 H    0.971
                             9 C    0.112
     7   6 C    3.992 --     6 C    1.442     8 C    1.436    19 H    0.972
                             4 C    0.109
     8   6 C    3.992 --     9 C    1.447     7 C    1.436    20 H    0.971
                             5 C    0.111
     9   6 C    3.989 --     8 C    1.447     4 C    1.410    21 H    0.962
                             6 C    0.112
    10   1 H    0.900 --     1 N    0.885
    11   1 H    0.909 --     1 N    0.889
    12   1 H    0.904 --     1 N    0.890
    13   1 H    0.989 --     2 C    0.957
    14   1 H    0.994 --     3 C    0.978
    15   1 H    0.993 --     3 C    0.978
    16   1 H    0.995 --     3 C    0.978
    17   1 H    0.997 --     5 C    0.967
    18   1 H    0.999 --     6 C    0.971
    19   1 H    0.999 --     7 C    0.972
    20   1 H    0.998 --     8 C    0.971
    21   1 H    0.996 --     9 C    0.962
 ---------------------------------------------------------------------------

molecular dipole:
                 x           y           z       tot (Debye)
 q only:        2.341       0.578      -1.058
   full:        2.377       0.419      -1.168       6.816

           -------------------------------------------------
          | TOTAL ENERGY              -25.831294794045 Eh   |
          | GRADIENT NORM               0.000340096194 Eh/α |
          | HOMO-LUMO GAP               4.753710007264 eV   |
           -------------------------------------------------

 * finished run on 2023/01/24 at 14:58:16.993
