   * xtb version 6.5.1 (fef0646) compiled by 'conda@b96dff2e9fd6' on 2023-01-04
          program call               : xtb init.xyz --opt -c 1 -u 0 -P 16 --input xtb.inp

   ID    Z sym.   atoms
    1    7 N      1
    2    6 C      2-9
    3    1 H      10-21

          :  Hamiltonian                  GFN2-xTB          :
 * total energy  :   -25.7190163 Eh     change       -0.6618350E-10 Eh
 * total energy  :   -25.7210066 Eh     change       -0.1990271E-02 Eh
 * total energy  :   -25.7214622 Eh     change       -0.4556695E-03 Eh
 * total energy  :   -25.7217146 Eh     change       -0.2523517E-03 Eh
 * total energy  :   -25.7219384 Eh     change       -0.2237788E-03 Eh
 * total energy  :   -25.7221479 Eh     change       -0.2094857E-03 Eh
 * total energy  :   -25.7223828 Eh     change       -0.2349230E-03 Eh
 * total energy  :   -25.7226233 Eh     change       -0.2405540E-03 Eh
 * total energy  :   -25.7228039 Eh     change       -0.1805985E-03 Eh
 * total energy  :   -25.7229129 Eh     change       -0.1089352E-03 Eh
 * total energy  :   -25.7242654 Eh     change       -0.1910381E-03 Eh
 * total energy  :   -25.7243340 Eh     change       -0.6854881E-04 Eh
 * total energy  :   -25.7243736 Eh     change       -0.3959057E-04 Eh
 * total energy  :   -25.7244069 Eh     change       -0.3331509E-04 Eh
 * total energy  :   -25.7244516 Eh     change       -0.4470271E-04 Eh
 * total energy  :   -25.7244704 Eh     change       -0.1877193E-04 Eh
 * total energy  :   -25.7244866 Eh     change       -0.1626323E-04 Eh
 * total energy  :   -25.7244925 Eh     change       -0.5849324E-05 Eh
 * total energy  :   -25.7244957 Eh     change       -0.3282577E-05 Eh
   *** GEOMETRY OPTIMIZATION CONVERGED AFTER 27 ITERATIONS ***

 final structure:
================
21
 xtb: 6.5.1 (fef0646)
N            3.16235199174430       -2.46961224347905       -0.25506564075568
C            2.58334537125038       -1.09430418584455       -0.20383671064889
C            2.99589845840543       -0.45804401056629        1.12556727312450
C            4.49955877486038       -0.50014747828671        1.23078104668414
C            5.27608775836223        0.52240683055345        0.69991099113445
C            6.65701066583259        0.43592030233731        0.72245575710029
C            7.27877214076197       -0.67949682728057        1.26259838923179
C            6.51657552297675       -1.70316809620701        1.79672596961317
C            5.13084078141666       -1.62101082832030        1.77422019444754
H            3.24890707322758       -2.82808759139175       -1.21076364655650
H            2.59745933124394       -3.12515174815272        0.29646493758296
H            4.10983885619452       -2.38585083625239        0.20548569273469
H            1.50025484915570       -1.14215866939266       -0.31144298686960
H            2.99850576450568       -0.51669047196210       -1.03079460219816
H            2.53520919129576       -0.99226877065616        1.95775597794595
H            2.63935981430766        0.57031934174070        1.14884171625937
H            4.79677254347214        1.39588730186904        0.28437138828710
H            7.24997301764452        1.24274894529057        0.32192979677025
H            8.35481356998870       -0.74214184312231        1.28220833883785
H            6.99420840785182       -2.56287719045555        2.24024060646921
H            4.55128611550123       -2.38763193042082        2.27503551080621

          :  Hamiltonian                  GFN2-xTB          :
         :: total energy             -25.724495747788 Eh    ::
         :: gradient norm              0.000299341928 Eh/a0 ::
         :: HOMO-LUMO gap              4.719046390331 eV    ::
         :: SCC energy               -26.170407351914 Eh    ::
         :: -> dispersion             -0.015323482954 Eh    ::
         :: repulsion energy           0.445814326470 Eh    ::

    * Orbital Energies and Occupations

         #    Occupation            Energy/Eh            Energy/eV
      -------------------------------------------------------------
         1        2.0000           -0.8847673             -24.0757
       ...           ...                  ...                  ...
        12        2.0000           -0.6771416             -18.4260
        13        2.0000           -0.6616345             -18.0040
        14        2.0000           -0.6500347             -17.6883
        15        2.0000           -0.6378914             -17.3579
        16        2.0000           -0.6250780             -17.0092
        17        2.0000           -0.6104230             -16.6105
        18        2.0000           -0.6091339             -16.5754
        19        2.0000           -0.6044966             -16.4492
        20        2.0000           -0.6040688             -16.4375
        21        2.0000           -0.5541380             -15.0789
        22        2.0000           -0.5510037             -14.9936
        23        2.0000           -0.5391133             -14.6700
        24        2.0000           -0.5355368             -14.5727 (HOMO)
        25                         -0.3621150              -9.8537 (LUMO)
        26                         -0.3583792              -9.7520
        27                         -0.2468705              -6.7177
        28                         -0.2306218              -6.2755
        29                         -0.1449068              -3.9431
        30                         -0.0909873              -2.4759
        31                         -0.0834130              -2.2698
        32                         -0.0548824              -1.4934
        33                         -0.0386078              -1.0506
        34                         -0.0126171              -0.3433
        35                          0.0109496               0.2980
       ...                                ...                  ...
        48                          0.5262875              14.3210
      -------------------------------------------------------------
                  HL-Gap            0.1734218 Eh            4.7190 eV

     #   Z          covCN         q      C6AA      α(0)
     1   7 N        3.482    -0.143    24.094     7.290
     2   6 C        3.735    -0.029    21.181     6.568
     3   6 C        3.809    -0.092    22.244     6.714
     4   6 C        2.972    -0.004    28.131     8.700
     5   6 C        2.922    -0.037    28.915     8.818
     6   6 C        2.919    -0.018    28.470     8.750
     7   6 C        2.919    -0.021    28.535     8.760
     8   6 C        2.917    -0.026    28.650     8.777
     9   6 C        2.922    -0.065    29.618     8.925
    10   1 H        0.859     0.260     0.845     1.440
    11   1 H        0.859     0.263     0.836     1.432
    12   1 H        0.856     0.279     0.781     1.385
    13   1 H        0.925     0.103     1.756     2.072
    14   1 H        0.924     0.104     1.753     2.070
    15   1 H        0.924     0.071     2.074     2.252
    16   1 H        0.925     0.094     1.838     2.120
    17   1 H        0.926     0.051     2.308     2.376
    18   1 H        0.926     0.062     2.178     2.308
    19   1 H        0.926     0.062     2.179     2.308
    20   1 H        0.926     0.054     2.267     2.354
    21   1 H        0.925     0.034     2.533     2.489

Wiberg/Mayer (AO) data.
largest (>0.10) Wiberg bond orders for each atom

     #   Z sym  total        # sym  WBO       # sym  WBO       # sym  WBO
 ---------------------------------------------------------------------------
     1   7 N    3.664 --     2 C    0.935    10 H    0.918    11 H    0.916
                            12 H    0.835
     2   6 C    3.900 --     3 C    0.994    14 H    0.968    13 H    0.968
                             1 N    0.935
     3   6 C    3.979 --     4 C    1.005     2 C    0.994    15 H    0.969
                            16 H    0.960
     4   6 C    3.987 --     5 C    1.411     9 C    1.386     3 C    1.005
                             7 C    0.107
     5   6 C    3.991 --     6 C    1.448     4 C    1.411    17 H    0.967
                             8 C    0.111
     6   6 C    3.989 --     5 C    1.448     7 C    1.432    18 H    0.968
                             9 C    0.106
     7   6 C    3.989 --     8 C    1.448     6 C    1.432    19 H    0.969
                             4 C    0.107
     8   6 C    3.990 --     7 C    1.448     9 C    1.423    20 H    0.969
                             5 C    0.111
     9   6 C    3.990 --     8 C    1.423     4 C    1.386    21 H    0.960
                             6 C    0.106
    10   1 H    0.932 --     1 N    0.918
    11   1 H    0.931 --     1 N    0.916
    12   1 H    0.922 --     1 N    0.835
    13   1 H    0.988 --     2 C    0.968
    14   1 H    0.989 --     2 C    0.968
    15   1 H    0.995 --     3 C    0.969
    16   1 H    0.991 --     3 C    0.960
    17   1 H    0.997 --     5 C    0.967
    18   1 H    0.996 --     6 C    0.968
    19   1 H    0.996 --     7 C    0.969
    20   1 H    0.997 --     8 C    0.969
    21   1 H    0.999 --     9 C    0.960
 ---------------------------------------------------------------------------

molecular dipole:
                 x           y           z       tot (Debye)
 q only:        6.635      -3.705      -0.102
   full:        6.646      -3.902      -0.125      19.591

           -------------------------------------------------
          | TOTAL ENERGY              -25.724495747788 Eh   |
          | GRADIENT NORM               0.000299341928 Eh/α |
          | HOMO-LUMO GAP               4.719046390331 eV   |
           -------------------------------------------------

 * finished run on 2023/01/23 at 19:43:30.873
