   * xtb version 6.5.1 (fef0646) compiled by 'conda@b96dff2e9fd6' on 2023-01-04
          program call               : xtb init.xyz --opt -c 0 -u 0 -P 16 --alpb water

   ID    Z sym.   atoms
    1    7 N      1
    2    6 C      2-10
    3   17 Cl     11
    4    1 H      12-25

      * Solvation model:               ALPB
        Solvent                        water
        Solvent mass                       1.8000E+01 g/mol
          :  Hamiltonian                  GFN2-xTB          :
 * total energy  :   -33.9036894 Eh     change       -0.2719744E-09 Eh
 * total energy  :   -33.9080597 Eh     change       -0.4370301E-02 Eh
 * total energy  :   -33.9088774 Eh     change       -0.8177321E-03 Eh
 * total energy  :   -33.9090957 Eh     change       -0.2182848E-03 Eh
 * total energy  :   -33.9091619 Eh     change       -0.6617568E-04 Eh
 * total energy  :   -33.9092235 Eh     change       -0.6166301E-04 Eh
 * total energy  :   -33.9092842 Eh     change       -0.6070968E-04 Eh
 * total energy  :   -33.9093548 Eh     change       -0.7056262E-04 Eh
 * total energy  :   -33.9093955 Eh     change       -0.4074347E-04 Eh
 * total energy  :   -33.9094195 Eh     change       -0.2397896E-04 Eh
 * total energy  :   -33.9095605 Eh     change       -0.2282441E-04 Eh
 * total energy  :   -33.9095892 Eh     change       -0.2872877E-04 Eh
 * total energy  :   -33.9096274 Eh     change       -0.3818086E-04 Eh
 * total energy  :   -33.9096622 Eh     change       -0.3477652E-04 Eh
 * total energy  :   -33.9096781 Eh     change       -0.1594120E-04 Eh
 * total energy  :   -33.9096875 Eh     change       -0.9391995E-05 Eh
 * total energy  :   -33.9096940 Eh     change       -0.6535601E-05 Eh
 * total energy  :   -33.9096991 Eh     change       -0.5056859E-05 Eh
 * total energy  :   -33.9097036 Eh     change       -0.4477427E-05 Eh
   *** GEOMETRY OPTIMIZATION CONVERGED AFTER 24 ITERATIONS ***

 final structure:
================
25
 xtb: 6.5.1 (fef0646)
N            1.10923621541590       -0.47117565091107       -0.34818791288651
C            2.57478323503743       -0.34083379370388       -0.21831682988341
C            3.04001891228276        0.95743310971595       -0.86471420404500
C            4.53215857778860        1.20240874881269       -0.61422171845263
C            4.96436479345883        2.49536322415981       -1.24528990684565
C            4.69178347238310        3.70501477151120       -0.61730878679833
C            5.05489455597825        4.90343476882223       -1.20435107039448
C            5.69689651956912        4.90905963186292       -2.43178054308449
C            5.97168373021167        3.71011008900507       -3.06645226588244
C            5.60524584793541        2.51251499745813       -2.47683451194070
Cl          -0.22185111784780        1.92699970755137        1.00990318566691
H            0.76441005087854       -1.32088030345319        0.10375365395941
H            0.82845430325284       -0.46148181158989       -1.33158297546541
H            0.64119456250094        0.34877893978922        0.11539411622212
H            3.06162856077581       -1.19567469956968       -0.68945242896758
H            2.82620013105170       -0.32453767684169        0.84202305738863
H            2.46108411262616        1.78373781945058       -0.44772477244585
H            2.86322351460875        0.93224090753631       -1.94087144441028
H            5.11249247504312        0.37790994505542       -1.03023135637589
H            4.71239885200966        1.24554975855354        0.46114947763886
H            4.18922835817238        3.70741525970188        0.33973894817929
H            4.83622898416689        5.83605209857822       -0.70439509044786
H            5.98085895327771        5.84497859715068       -2.89004575118591
H            6.47261280833815        3.70952239798186       -4.02331258772520
H            5.82490959108686        1.58135916336664       -2.97812828181638

          :  Hamiltonian                  GFN2-xTB          :
         :: total energy             -33.909703575368 Eh    ::
         :: gradient norm              0.000508228371 Eh/a0 ::
         :: HOMO-LUMO gap              4.729314539713 eV    ::
         :: SCC energy               -34.407854314489 Eh    ::
         :: -> dispersion             -0.018936390113 Eh    ::
         :: -> Gsolv                  -0.074807591601 Eh    ::
         :: repulsion energy           0.498095400301 Eh    ::

    * Orbital Energies and Occupations

         #    Occupation            Energy/Eh            Energy/eV
      -------------------------------------------------------------
         1        2.0000           -1.0060864             -27.3770
       ...           ...                  ...                  ...
        19        2.0000           -0.4713937             -12.8273
        20        2.0000           -0.4704946             -12.8028
        21        2.0000           -0.4578127             -12.4577
        22        2.0000           -0.4534597             -12.3393
        23        2.0000           -0.4479718             -12.1899
        24        2.0000           -0.4269047             -11.6167
        25        2.0000           -0.4161914             -11.3251
        26        2.0000           -0.4126899             -11.2299
        27        2.0000           -0.4026182             -10.9558
        28        2.0000           -0.4001701             -10.8892
        29        2.0000           -0.3998625             -10.8808
        30        2.0000           -0.3971654             -10.8074
        31        2.0000           -0.3897591             -10.6059 (HOMO)
        32                         -0.2159600              -5.8766 (LUMO)
        33                         -0.2155007              -5.8641
        34                         -0.0877899              -2.3889
        35                         -0.0257502              -0.7007
        36                          0.0723986               1.9701
        37                          0.0923544               2.5131
        38                          0.1000747               2.7232
        39                          0.1168744               3.1803
        40                          0.1176029               3.2001
        41                          0.1195671               3.2536
        42                          0.1199240               3.2633
       ...                                ...                  ...
        63                          0.6708480              18.2547
      -------------------------------------------------------------
                  HL-Gap            0.1737991 Eh            4.7293 eV

     #   Z          covCN         q      C6AA      α(0)
     1   7 N        3.484    -0.170    24.669     7.377
     2   6 C        3.733    -0.026    21.131     6.561
     3   6 C        3.805    -0.072    21.876     6.658
     4   6 C        3.809    -0.074    21.915     6.664
     5   6 C        2.971     0.014    27.704     8.634
     6   6 C        2.925    -0.041    29.014     8.833
     7   6 C        2.919    -0.036    28.893     8.815
     8   6 C        2.920    -0.039    28.981     8.828
     9   6 C        2.919    -0.037    28.927     8.820
    10   6 C        2.925    -0.045    29.118     8.849
    11  17 Cl       0.047    -0.948   124.909    17.009
    12   1 H        0.859     0.305     0.699     1.310
    13   1 H        0.859     0.297     0.722     1.331
    14   1 H        0.904     0.293     0.731     1.337
    15   1 H        0.924     0.106     1.728     2.056
    16   1 H        0.925     0.097     1.811     2.105
    17   1 H        0.924     0.056     2.245     2.343
    18   1 H        0.924     0.060     2.197     2.318
    19   1 H        0.924     0.057     2.229     2.335
    20   1 H        0.924     0.050     2.319     2.382
    21   1 H        0.926     0.028     2.614     2.528
    22   1 H        0.926     0.022     2.701     2.570
    23   1 H        0.926     0.026     2.643     2.542
    24   1 H        0.926     0.033     2.541     2.493
    25   1 H        0.926     0.044     2.398     2.422

Wiberg/Mayer (AO) data.
largest (>0.10) Wiberg bond orders for each atom

     #   Z sym  total        # sym  WBO       # sym  WBO       # sym  WBO
 ---------------------------------------------------------------------------
     1   7 N    3.644 --     2 C    0.968    13 H    0.897    12 H    0.893
                            14 H    0.834
     2   6 C    3.930 --     3 C    1.009    16 H    0.968     1 N    0.968
                            15 H    0.967
     3   6 C    3.992 --     2 C    1.009     4 C    0.988    18 H    0.975
                            17 H    0.973
     4   6 C    3.995 --     5 C    1.012     3 C    0.988    19 H    0.973
                            20 H    0.970
     5   6 C    3.988 --    10 C    1.416     6 C    1.409     4 C    1.012
                             8 C    0.110
     6   6 C    3.992 --     7 C    1.450     5 C    1.409    21 H    0.970
                             9 C    0.112
     7   6 C    3.993 --     6 C    1.450     8 C    1.435    22 H    0.972
                            10 C    0.110
     8   6 C    3.992 --     9 C    1.441     7 C    1.435    23 H    0.972
                             5 C    0.110
     9   6 C    3.992 --    10 C    1.442     8 C    1.441    24 H    0.971
                             6 C    0.112
    10   6 C    3.990 --     9 C    1.442     5 C    1.416    25 H    0.968
                             7 C    0.110
    11  17 Cl   0.101
    12   1 H    0.907 --     1 N    0.893
    13   1 H    0.912 --     1 N    0.897
    14   1 H    0.914 --     1 N    0.834
    15   1 H    0.989 --     2 C    0.967
    16   1 H    0.991 --     2 C    0.968
    17   1 H    0.997 --     3 C    0.973
    18   1 H    0.996 --     3 C    0.975
    19   1 H    0.996 --     4 C    0.973
    20   1 H    0.997 --     4 C    0.970
    21   1 H    0.999 --     6 C    0.970
    22   1 H    0.999 --     7 C    0.972
    23   1 H    0.999 --     8 C    0.972
    24   1 H    0.999 --     9 C    0.971
    25   1 H    0.998 --    10 C    0.968
 ---------------------------------------------------------------------------

molecular dipole:
                 x           y           z       tot (Debye)
 q only:        2.553      -4.560      -2.374
   full:        2.059      -3.925      -2.054      12.415

           -------------------------------------------------
          | TOTAL ENERGY              -33.909703575368 Eh   |
          | GRADIENT NORM               0.000508228371 Eh/α |
          | HOMO-LUMO GAP               4.729314539713 eV   |
           -------------------------------------------------

 * finished run on 2023/01/24 at 14:57:48.286
