   * xtb version 6.5.1 (fef0646) compiled by 'conda@b96dff2e9fd6' on 2023-01-04
          program call               : xtb init.xyz --opt -c 0 -u 0 -P 16

   ID    Z sym.   atoms
    1    7 N      1
    2    6 C      2-6
    3   17 Cl     7
    4    1 H      8-21

          :  Hamiltonian                  GFN2-xTB          :
 * total energy  :   -25.2946168 Eh     change       -0.7379839E-09 Eh
 * total energy  :   -25.3005430 Eh     change       -0.5926157E-02 Eh
 * total energy  :   -25.3065451 Eh     change       -0.6002067E-02 Eh
 * total energy  :   -25.3102299 Eh     change       -0.3684851E-02 Eh
 * total energy  :   -25.3128403 Eh     change       -0.2610386E-02 Eh
 * total energy  :   -25.3146546 Eh     change       -0.1814340E-02 Eh
 * total energy  :   -25.3155133 Eh     change       -0.8586083E-03 Eh
 * total energy  :   -25.3159047 Eh     change       -0.3914969E-03 Eh
 * total energy  :   -25.3159119 Eh     change       -0.7189854E-05 Eh
 * total energy  :   -25.3160483 Eh     change       -0.1363743E-03 Eh
 * total energy  :   -25.3163916 Eh     change       -0.2278161E-04 Eh
 * total energy  :   -25.3164377 Eh     change       -0.4605190E-04 Eh
 * total energy  :   -25.3164649 Eh     change       -0.2719038E-04 Eh
 * total energy  :   -25.3165197 Eh     change       -0.5487437E-04 Eh
 * total energy  :   -25.3165434 Eh     change       -0.2368480E-04 Eh
 * total energy  :   -25.3165674 Eh     change       -0.2395802E-04 Eh
 * total energy  :   -25.3165809 Eh     change       -0.1354852E-04 Eh
 * total energy  :   -25.3165910 Eh     change       -0.1006457E-04 Eh
 * total energy  :   -25.3165943 Eh     change       -0.3292733E-05 Eh
   *** GEOMETRY OPTIMIZATION CONVERGED AFTER 23 ITERATIONS ***

 final structure:
================
21
 xtb: 6.5.1 (fef0646)
N            1.11447643771852       -0.34531296449056        0.10603982853573
C            2.57458394233091       -0.28441913992457        0.04338616085319
C            3.06546188741730        1.07334659527375        0.53576952732615
C            4.58308975668174        1.19706879291107        0.42900457487073
C            5.08116596205585        2.55806867922383        0.90979766892196
C            6.59919768922581        2.66424841116536        0.82726736338516
Cl          -0.06854644100037        1.75898655030423       -1.55856745607271
H            0.76850350864277       -1.23646016303279       -0.23154852826322
H            0.49727323485065        0.77728404235351       -0.78449818887980
H            0.78945461625602       -0.20672496902905        1.05748996131487
H            2.86294234838910       -0.42163081536153       -1.00141353193068
H            3.04557480845978       -1.08308297646457        0.63468097474542
H            2.76190420942504        1.21121967791008        1.57650844188242
H            2.58801975091624        1.85348453960654       -0.05765718171477
H            4.88328515499066        1.05150939958075       -0.61096419130050
H            5.05555918565237        0.41015687272132        1.02298462937231
H            4.76204721945893        2.71589372538146        1.94277691561157
H            4.62697298717945        3.34148638394454        0.29978123010491
H            7.06969004751474        1.90597817406277        1.45039352167063
H            6.93389473273988        3.64215736365084        1.16561829927408
H            6.93577896109463        2.52102182021294       -0.19751001970758

          :  Hamiltonian                  GFN2-xTB          :
         :: total energy             -25.316594277042 Eh    ::
         :: gradient norm              0.000661424905 Eh/a0 ::
         :: HOMO-LUMO gap              9.172685406489 eV    ::
         :: SCC energy               -25.604839411995 Eh    ::
         :: -> dispersion             -0.011963066946 Eh    ::
         :: repulsion energy           0.288242390020 Eh    ::

    * Orbital Energies and Occupations

         #    Occupation            Energy/Eh            Energy/eV
      -------------------------------------------------------------
         1        2.0000           -1.0159704             -27.6460
       ...           ...                  ...                  ...
        11        2.0000           -0.5156124             -14.0305
        12        2.0000           -0.4941372             -13.4462
        13        2.0000           -0.4910438             -13.3620
        14        2.0000           -0.4872869             -13.2598
        15        2.0000           -0.4700612             -12.7910
        16        2.0000           -0.4612619             -12.5516
        17        2.0000           -0.4438553             -12.0779
        18        2.0000           -0.4425370             -12.0420
        19        2.0000           -0.4362126             -11.8699
        20        2.0000           -0.4272312             -11.6256
        21        2.0000           -0.3983184             -10.8388
        22        2.0000           -0.3931104             -10.6971
        23        2.0000           -0.3930685             -10.6959 (HOMO)
        24                         -0.0559785              -1.5233 (LUMO)
        25                          0.0108888               0.2963
        26                          0.0680126               1.8507
        27                          0.0683901               1.8610
        28                          0.0701110               1.9078
        29                          0.0740586               2.0152
        30                          0.0742412               2.0202
        31                          0.0951437               2.5890
        32                          0.1071706               2.9163
        33                          0.1121545               3.0519
        34                          0.1304289               3.5492
       ...                                ...                  ...
        47                          0.3078368               8.3767
      -------------------------------------------------------------
                  HL-Gap            0.3370900 Eh            9.1727 eV

     #   Z          covCN         q      C6AA      α(0)
     1   7 N        2.695    -0.306    27.870     7.841
     2   6 C        3.732     0.008    20.539     6.469
     3   6 C        3.804    -0.074    21.906     6.663
     4   6 C        3.804    -0.061    21.662     6.626
     5   6 C        3.801    -0.055    21.554     6.610
     6   6 C        3.752    -0.104    22.541     6.770
     7  17 Cl       0.837    -0.486   115.166    16.417
     8   1 H        0.860     0.166     1.300     1.786
     9   1 H        0.901     0.332     0.623     1.235
    10   1 H        0.860     0.167     1.291     1.780
    11   1 H        0.924     0.052     2.301     2.372
    12   1 H        0.923     0.024     2.680     2.560
    13   1 H        0.924     0.037     2.491     2.468
    14   1 H        0.924     0.061     2.182     2.310
    15   1 H        0.924     0.036     2.505     2.475
    16   1 H        0.924     0.031     2.572     2.508
    17   1 H        0.924     0.031     2.572     2.508
    18   1 H        0.924     0.036     2.505     2.475
    19   1 H        0.925     0.034     2.536     2.490
    20   1 H        0.925     0.036     2.504     2.474
    21   1 H        0.925     0.035     2.510     2.477

Wiberg/Mayer (AO) data.
largest (>0.10) Wiberg bond orders for each atom

     #   Z sym  total        # sym  WBO       # sym  WBO       # sym  WBO
 ---------------------------------------------------------------------------
     1   7 N    3.239 --     2 C    1.004     8 H    0.959    10 H    0.958
                             9 H    0.206
     2   6 C    3.973 --     3 C    1.006     1 N    1.004    11 H    0.974
                            12 H    0.973
     3   6 C    3.993 --     4 C    1.006     2 C    1.006    13 H    0.976
                            14 H    0.973
     4   6 C    3.997 --     5 C    1.008     3 C    1.006    15 H    0.977
                            16 H    0.977
     5   6 C    3.997 --     6 C    1.019     4 C    1.008    17 H    0.978
                            18 H    0.978
     6   6 C    3.997 --     5 C    1.019    19 H    0.988    21 H    0.988
                            20 H    0.987
     7  17 Cl   0.767 --     9 H    0.679
     8   1 H    0.972 --     1 N    0.959
     9   1 H    0.890 --     7 Cl   0.679     1 N    0.206
    10   1 H    0.972 --     1 N    0.958
    11   1 H    0.997 --     2 C    0.974
    12   1 H    0.999 --     2 C    0.973
    13   1 H    0.999 --     3 C    0.976
    14   1 H    0.996 --     3 C    0.973
    15   1 H    0.999 --     4 C    0.977
    16   1 H    0.999 --     4 C    0.977
    17   1 H    0.999 --     5 C    0.978
    18   1 H    0.999 --     5 C    0.978
    19   1 H    0.999 --     6 C    0.988
    20   1 H    0.998 --     6 C    0.987
    21   1 H    0.999 --     6 C    0.988
 ---------------------------------------------------------------------------

molecular dipole:
                 x           y           z       tot (Debye)
 q only:        1.002      -1.228       1.105
   full:        0.818      -1.260       1.075       4.696

           -------------------------------------------------
          | TOTAL ENERGY              -25.316594277042 Eh   |
          | GRADIENT NORM               0.000661424905 Eh/α |
          | HOMO-LUMO GAP               9.172685406489 eV   |
           -------------------------------------------------

 * finished run on 2023/01/23 at 14:14:55.259
