   * xtb version 6.5.1 (fef0646) compiled by 'conda@b96dff2e9fd6' on 2023-01-04
          program call               : xtb init.xyz --opt -c 0 -u 0 -P 16 --alpb water

   ID    Z sym.   atoms
    1    7 N      1
    2    6 C      2-5
    3    8 O      6, 7
    4   17 Cl     8
    5    1 H      9-18

      * Solvation model:               ALPB
        Solvent                        water
        Solvent mass                       1.8000E+01 g/mol
          :  Hamiltonian                  GFN2-xTB          :
 * total energy  :   -29.3137600 Eh     change       -0.1218861E-08 Eh
 * total energy  :   -29.3181447 Eh     change       -0.4384649E-02 Eh
 * total energy  :   -29.3191897 Eh     change       -0.1044985E-02 Eh
 * total energy  :   -29.3194017 Eh     change       -0.2120829E-03 Eh
 * total energy  :   -29.3195134 Eh     change       -0.1117012E-03 Eh
 * total energy  :   -29.3195911 Eh     change       -0.7761914E-04 Eh
 * total energy  :   -29.3196707 Eh     change       -0.7963326E-04 Eh
 * total energy  :   -29.3197281 Eh     change       -0.5742300E-04 Eh
 * total energy  :   -29.3197657 Eh     change       -0.3761431E-04 Eh
 * total energy  :   -29.3198029 Eh     change       -0.3717054E-04 Eh
 * total energy  :   -29.3198499 Eh     change       -0.4697586E-04 Eh
 * total energy  :   -29.3198962 Eh     change       -0.4634989E-04 Eh
 * total energy  :   -29.3199292 Eh     change       -0.3297108E-04 Eh
 * total energy  :   -29.3199430 Eh     change       -0.1383761E-04 Eh
 * total energy  :   -29.3199566 Eh     change       -0.1355010E-04 Eh
 * total energy  :   -29.3199640 Eh     change       -0.7372794E-05 Eh
 * total energy  :   -29.3199764 Eh     change       -0.1243842E-04 Eh
 * total energy  :   -29.3199808 Eh     change       -0.4437255E-05 Eh
   *** GEOMETRY OPTIMIZATION CONVERGED AFTER 18 ITERATIONS ***

 final structure:
================
18
 xtb: 6.5.1 (fef0646)
N            0.97476836320480       -0.19032888813352        0.18378094822898
C            2.44845932460585       -0.15364114035610        0.21065865559244
C            2.99308886046038       -1.07077703405851        1.30145710922664
C            4.51956888408615       -1.03630216952790        1.33535280843322
C            5.07068057348150       -1.86967269001272        2.46831296173069
O            6.39896182698514       -1.92685912680835        2.56068678701603
O            4.38331217439982       -2.46189512228122        3.26724010310070
Cl          -0.03220503787262        1.80573295394680       -1.87701891586061
H            0.60775274463851        0.47987942746510       -0.54180642169752
H            0.58724765608789        0.09467897754641        1.08667479885690
H            0.63399092645352       -1.12605371866332       -0.04862736988492
H            2.76140503206893        0.87605629762105        0.38352490826779
H            2.81828921170087       -0.45717412822341       -0.76835857533731
H            2.67074203037259       -2.09881086365879        1.13335299102396
H            2.61967460325321       -0.76420915387360        2.27921638968793
H            4.86687266012890       -0.00925790381859        1.46869355086026
H            4.92763919055050       -1.41320236534867        0.39533030434231
H            6.86840097539364       -1.41685335181474        1.87601896641238

          :  Hamiltonian                  GFN2-xTB          :
         :: total energy             -29.319980828649 Eh    ::
         :: gradient norm              0.000574454426 Eh/a0 ::
         :: HOMO-LUMO gap              4.487140340253 eV    ::
         :: SCC energy               -29.584921698853 Eh    ::
         :: -> dispersion             -0.009695315210 Eh    ::
         :: -> Gsolv                  -0.091623756915 Eh    ::
         :: repulsion energy           0.264984783383 Eh    ::

    * Orbital Energies and Occupations

         #    Occupation            Energy/Eh            Energy/eV
      -------------------------------------------------------------
         1        2.0000           -1.0070875             -27.4042
       ...           ...                  ...                  ...
        13        2.0000           -0.5448174             -14.8252
        14        2.0000           -0.5371477             -14.6165
        15        2.0000           -0.5150271             -14.0146
        16        2.0000           -0.5033385             -13.6965
        17        2.0000           -0.4769973             -12.9798
        18        2.0000           -0.4755574             -12.9406
        19        2.0000           -0.4692048             -12.7677
        20        2.0000           -0.4606984             -12.5362
        21        2.0000           -0.4363427             -11.8735
        22        2.0000           -0.4221168             -11.4864
        23        2.0000           -0.4042246             -10.9995
        24        2.0000           -0.4010171             -10.9122
        25        2.0000           -0.4009121             -10.9094 (HOMO)
        26                         -0.2360128              -6.4222 (LUMO)
        27                         -0.0298176              -0.8114
        28                          0.0543616               1.4793
        29                          0.0714259               1.9436
        30                          0.0843806               2.2961
        31                          0.1106439               3.0108
        32                          0.1120879               3.0501
        33                          0.1160863               3.1589
        34                          0.1162398               3.1630
        35                          0.1185797               3.2267
        36                          0.1185827               3.2268
       ...                                ...                  ...
        47                          0.6065300              16.5045
      -------------------------------------------------------------
                  HL-Gap            0.1648994 Eh            4.4871 eV

     #   Z          covCN         q      C6AA      α(0)
     1   7 N        3.483    -0.167    24.605     7.367
     2   6 C        3.733    -0.027    21.155     6.565
     3   6 C        3.804    -0.079    22.000     6.677
     4   6 C        3.804    -0.118    22.750     6.790
     5   6 C        2.689     0.372    20.701     7.446
     6   8 O        1.659    -0.431    21.461     6.254
     7   8 O        0.856    -0.464    23.002     6.430
     8  17 Cl       0.061    -0.945   124.786    17.001
     9   1 H        0.917     0.297     0.717     1.324
    10   1 H        0.859     0.297     0.723     1.332
    11   1 H        0.859     0.298     0.719     1.329
    12   1 H        0.925     0.102     1.769     2.080
    13   1 H        0.925     0.104     1.750     2.068
    14   1 H        0.924     0.075     2.028     2.227
    15   1 H        0.924     0.075     2.033     2.230
    16   1 H        0.924     0.098     1.802     2.099
    17   1 H        0.924     0.098     1.805     2.101
    18   1 H        0.804     0.415     0.457     1.062

Wiberg/Mayer (AO) data.
largest (>0.10) Wiberg bond orders for each atom

     #   Z sym  total        # sym  WBO       # sym  WBO       # sym  WBO
 ---------------------------------------------------------------------------
     1   7 N    3.645 --     2 C    0.971    10 H    0.896    11 H    0.896
                             9 H    0.827
     2   6 C    3.930 --     3 C    1.009     1 N    0.971    12 H    0.967
                            13 H    0.966
     3   6 C    3.988 --     2 C    1.009     4 C    1.007    14 H    0.972
                            15 H    0.971
     4   6 C    3.991 --     3 C    1.007     5 C    0.985    17 H    0.946
                            16 H    0.944
     5   6 C    3.901 --     7 O    1.725     6 O    1.154     4 C    0.985
     6   8 O    2.168 --     5 C    1.154    18 H    0.806     7 O    0.158
     7   8 O    1.997 --     5 C    1.725     6 O    0.158
     8  17 Cl   0.107
     9   1 H    0.911 --     1 N    0.827
    10   1 H    0.912 --     1 N    0.896
    11   1 H    0.911 --     1 N    0.896
    12   1 H    0.990 --     2 C    0.967
    13   1 H    0.989 --     2 C    0.966
    14   1 H    0.994 --     3 C    0.972
    15   1 H    0.994 --     3 C    0.971
    16   1 H    0.990 --     4 C    0.944
    17   1 H    0.990 --     4 C    0.946
    18   1 H    0.828 --     6 O    0.806
 ---------------------------------------------------------------------------

molecular dipole:
                 x           y           z       tot (Debye)
 q only:        2.744      -2.365       2.076
   full:        2.460      -1.783       1.440       8.546

           -------------------------------------------------
          | TOTAL ENERGY              -29.319980828649 Eh   |
          | GRADIENT NORM               0.000574454426 Eh/α |
          | HOMO-LUMO GAP               4.487140340253 eV   |
           -------------------------------------------------

 * finished run on 2023/01/24 at 15:56:04.345
