   * xtb version 6.5.1 (fef0646) compiled by 'conda@b96dff2e9fd6' on 2023-01-04
          program call               : xtb init.xyz --opt -c 1 -u 0 -P 16 --input xtb.inp

   ID    Z sym.   atoms
    1    7 N      1
    2    6 C      2-13
    3    1 H      14-27

          :  Hamiltonian                  GFN2-xTB          :
 * total energy  :   -35.3129780 Eh     change       -0.1991154E-09 Eh
 * total energy  :   -35.3169923 Eh     change       -0.4014299E-02 Eh
 * total energy  :   -35.3179610 Eh     change       -0.9686516E-03 Eh
 * total energy  :   -35.3182536 Eh     change       -0.2926538E-03 Eh
 * total energy  :   -35.3185889 Eh     change       -0.3352825E-03 Eh
 * total energy  :   -35.3188051 Eh     change       -0.2161900E-03 Eh
 * total energy  :   -35.3190337 Eh     change       -0.2285704E-03 Eh
 * total energy  :   -35.3192521 Eh     change       -0.2184145E-03 Eh
 * total energy  :   -35.3194220 Eh     change       -0.1699211E-03 Eh
 * total energy  :   -35.3195611 Eh     change       -0.1391535E-03 Eh
 * total energy  :   -35.3212726 Eh     change       -0.7659263E-04 Eh
 * total energy  :   -35.3213146 Eh     change       -0.4195757E-04 Eh
 * total energy  :   -35.3213680 Eh     change       -0.5339744E-04 Eh
 * total energy  :   -35.3214174 Eh     change       -0.4936618E-04 Eh
 * total energy  :   -35.3214537 Eh     change       -0.3637685E-04 Eh
 * total energy  :   -35.3214713 Eh     change       -0.1757122E-04 Eh
 * total energy  :   -35.3214903 Eh     change       -0.1900101E-04 Eh
 * total energy  :   -35.3215007 Eh     change       -0.1042172E-04 Eh
 * total energy  :   -35.3215050 Eh     change       -0.4269983E-05 Eh
   *** GEOMETRY OPTIMIZATION CONVERGED AFTER 31 ITERATIONS ***

 final structure:
================
27
 xtb: 6.5.1 (fef0646)
N            3.01293241907155        2.22886359246053       -1.78248730344993
C            2.48359028338221        1.32124833241811       -0.72149423022435
C            2.99913090275654       -0.09177428666207       -1.00504856476793
C            4.50352381938771       -0.04381918898247       -1.09153452262353
C            5.28676832678263       -0.22109575324573        0.01913203121383
C            6.68764285232135       -0.07912988878824       -0.04177601042535
C            7.50814986377149       -0.27821262980912        1.08788638299183
C            8.86432911142836       -0.13342948162512        0.99431167981123
C            9.46196849609941        0.21731653018416       -0.22775896359079
C            8.69506619199815        0.41990701176325       -1.34086913225054
C            7.29307989431824        0.27722205695365       -1.27872186640517
C            6.47307333580568        0.44865064558367       -2.41028134731332
C            5.11222537250720        0.30155886724096       -2.32372061793397
H            3.04497143048190        3.20820078452487       -1.48517968004851
H            2.45131900881605        2.15852591086623       -2.63802032660131
H            3.98645254600813        1.86307638709678       -1.99719913249345
H            1.39466034970556        1.36062076209993       -0.70706752366168
H            2.86495294295677        1.66245544814723        0.24181489178223
H            2.57049892247435       -0.46925344345069       -1.93478629677011
H            2.68179393741973       -0.74978951545515       -0.19809218266558
H            4.83545286380314       -0.49089304717413        0.96283720632436
H            7.04672451682527       -0.55074912417801        2.02529148282532
H            9.48756964107280       -0.29015937419956        1.86112544212430
H           10.53439785514598        0.32277812313462       -0.28062853767483
H            9.14926672724054        0.68542933027534       -2.28376447121523
H            6.93446246403507        0.68545262064970       -3.35736650688190
H            4.52019592438322        0.32624933017231       -3.23146190007583

          :  Hamiltonian                  GFN2-xTB          :
         :: total energy             -35.321504994080 Eh    ::
         :: gradient norm              0.000382274800 Eh/a0 ::
         :: HOMO-LUMO gap              3.089147031840 eV    ::
         :: SCC energy               -35.956858957227 Eh    ::
         :: -> dispersion             -0.024195450690 Eh    ::
         :: repulsion energy           0.635256062268 Eh    ::

    * Orbital Energies and Occupations

         #    Occupation            Energy/Eh            Energy/eV
      -------------------------------------------------------------
         1        2.0000           -0.8777727             -23.8854
       ...           ...                  ...                  ...
        21        2.0000           -0.6071509             -16.5214
        22        2.0000           -0.6053656             -16.4728
        23        2.0000           -0.6005682             -16.3423
        24        2.0000           -0.5862422             -15.9525
        25        2.0000           -0.5803094             -15.7910
        26        2.0000           -0.5760494             -15.6751
        27        2.0000           -0.5668245             -15.4241
        28        2.0000           -0.5565896             -15.1456
        29        2.0000           -0.5421335             -14.7522
        30        2.0000           -0.5272425             -14.3470
        31        2.0000           -0.5228072             -14.2263
        32        2.0000           -0.5146018             -14.0030
        33        2.0000           -0.4917896             -13.3823 (HOMO)
        34                         -0.3782655             -10.2931 (LUMO)
        35                         -0.3494184              -9.5082
        36                         -0.3029214              -8.2429
        37                         -0.2659432              -7.2367
        38                         -0.2388666              -6.4999
        39                         -0.1722421              -4.6869
        40                         -0.1368384              -3.7236
        41                         -0.0844514              -2.2980
        42                         -0.0758286              -2.0634
        43                         -0.0480070              -1.3063
        44                         -0.0330722              -0.8999
       ...                                ...                  ...
        66                          0.5864109              15.9571
      -------------------------------------------------------------
                  HL-Gap            0.1135241 Eh            3.0891 eV

     #   Z          covCN         q      C6AA      α(0)
     1   7 N        3.481    -0.146    24.143     7.298
     2   6 C        3.735    -0.028    21.161     6.565
     3   6 C        3.809    -0.090    22.212     6.709
     4   6 C        2.968    -0.012    28.306     8.727
     5   6 C        2.921    -0.044    29.094     8.845
     6   6 C        2.986     0.018    27.604     8.618
     7   6 C        2.917    -0.032    28.792     8.799
     8   6 C        2.916    -0.017    28.443     8.745
     9   6 C        2.916    -0.018    28.461     8.748
    10   6 C        2.917    -0.030    28.760     8.794
    11   6 C        2.986     0.015    27.669     8.629
    12   6 C        2.915    -0.032    28.807     8.801
    13   6 C        2.917    -0.075    29.870     8.962
    14   1 H        0.859     0.257     0.856     1.449
    15   1 H        0.859     0.260     0.845     1.440
    16   1 H        0.855     0.280     0.777     1.381
    17   1 H        0.925     0.100     1.786     2.090
    18   1 H        0.924     0.101     1.775     2.083
    19   1 H        0.924     0.069     2.101     2.267
    20   1 H        0.925     0.090     1.877     2.142
    21   1 H        0.926     0.047     2.360     2.402
    22   1 H        0.926     0.048     2.342     2.393
    23   1 H        0.926     0.056     2.249     2.345
    24   1 H        0.926     0.056     2.248     2.345
    25   1 H        0.926     0.049     2.330     2.387
    26   1 H        0.926     0.049     2.330     2.387
    27   1 H        0.925     0.030     2.589     2.516

Wiberg/Mayer (AO) data.
largest (>0.10) Wiberg bond orders for each atom

     #   Z sym  total        # sym  WBO       # sym  WBO       # sym  WBO
 ---------------------------------------------------------------------------
     1   7 N    3.660 --     2 C    0.935    14 H    0.920    15 H    0.918
                            16 H    0.822
     2   6 C    3.899 --     3 C    0.994    18 H    0.969    17 H    0.969
                             1 N    0.935
     3   6 C    3.979 --     4 C    1.004     2 C    0.994    19 H    0.969
                            20 H    0.962
     4   6 C    3.985 --     5 C    1.522    13 C    1.270     3 C    1.004
     5   6 C    3.991 --     4 C    1.522     6 C    1.288    21 H    0.965
                            12 C    0.111
     6   6 C    3.990 --     5 C    1.288     7 C    1.279    11 C    1.240
     7   6 C    3.990 --     8 C    1.558     6 C    1.279    22 H    0.967
                            10 C    0.117
     8   6 C    3.988 --     7 C    1.558     9 C    1.317    23 H    0.969
     9   6 C    3.988 --    10 C    1.559     8 C    1.317    24 H    0.969
    10   6 C    3.990 --     9 C    1.559    11 C    1.277    25 H    0.967
                             7 C    0.117
    11   6 C    3.991 --    12 C    1.293    10 C    1.277     6 C    1.240
    12   6 C    3.990 --    13 C    1.525    11 C    1.293    26 H    0.967
                             5 C    0.111
    13   6 C    3.988 --    12 C    1.525     4 C    1.270    27 H    0.957
    14   1 H    0.934 --     1 N    0.920
    15   1 H    0.932 --     1 N    0.918
    16   1 H    0.921 --     1 N    0.822
    17   1 H    0.989 --     2 C    0.969
    18   1 H    0.990 --     2 C    0.969
    19   1 H    0.995 --     3 C    0.969
    20   1 H    0.991 --     3 C    0.962
    21   1 H    0.997 --     5 C    0.965
    22   1 H    0.997 --     7 C    0.967
    23   1 H    0.996 --     8 C    0.969
    24   1 H    0.996 --     9 C    0.969
    25   1 H    0.997 --    10 C    0.967
    26   1 H    0.997 --    12 C    0.967
    27   1 H    0.999 --    13 C    0.957
 ---------------------------------------------------------------------------

molecular dipole:
                 x           y           z       tot (Debye)
 q only:        7.060       3.323      -2.568
   full:        7.045       3.454      -2.720      21.107

           -------------------------------------------------
          | TOTAL ENERGY              -35.321504994080 Eh   |
          | GRADIENT NORM               0.000382274800 Eh/α |
          | HOMO-LUMO GAP               3.089147031840 eV   |
           -------------------------------------------------

 * finished run on 2023/01/23 at 19:08:52.486
