   * xtb version 6.5.1 (fef0646) compiled by 'conda@b96dff2e9fd6' on 2023-01-04
          program call               : xtb init.xyz --opt -c 1 -u 0 -P 16

   ID    Z sym.   atoms
    1    7 N      1
    2    6 C      2-7, 10, 11
    3    8 O      8, 9
    4    1 H      12-27

          :  Hamiltonian                  GFN2-xTB          :
 * total energy  :   -35.9286428 Eh     change       -0.1513385E-09 Eh
 * total energy  :   -35.9321056 Eh     change       -0.3462849E-02 Eh
 * total energy  :   -35.9326568 Eh     change       -0.5511451E-03 Eh
 * total energy  :   -35.9327995 Eh     change       -0.1427772E-03 Eh
 * total energy  :   -35.9328723 Eh     change       -0.7276999E-04 Eh
 * total energy  :   -35.9329356 Eh     change       -0.6325215E-04 Eh
 * total energy  :   -35.9330087 Eh     change       -0.7315886E-04 Eh
 * total energy  :   -35.9330759 Eh     change       -0.6712302E-04 Eh
 * total energy  :   -35.9331216 Eh     change       -0.4579334E-04 Eh
 * total energy  :   -35.9331637 Eh     change       -0.4201612E-04 Eh
 * total energy  :   -35.9331859 Eh     change       -0.2220007E-04 Eh
 * total energy  :   -35.9332004 Eh     change       -0.1455200E-04 Eh
 * total energy  :   -35.9332062 Eh     change       -0.5739260E-05 Eh
 * total energy  :   -35.9332108 Eh     change       -0.4688298E-05 Eh
   *** GEOMETRY OPTIMIZATION CONVERGED AFTER 14 ITERATIONS ***

 final structure:
================
27
 xtb: 6.5.1 (fef0646)
N            0.93555871654463        0.26621515337214       -0.09832672151352
C            2.41325739166930        0.07186727690450        0.02793941168328
C            2.87687687932122       -1.08834505224484       -0.85318153778400
C            2.33065039838224       -2.43046588005736       -0.35971760495793
C            2.79126498256041       -3.55813638203589       -1.28006325865783
C            4.31528170418269       -3.62361243118773       -1.38211927856910
C            4.69611028254181       -4.62770883448820       -2.47573534994490
O            5.85051087944071       -5.27362604574798       -2.30397371913306
O            4.02404112853547       -4.79374265180467       -3.44986156930679
C            4.88098797810332       -2.26011743101010       -1.80388134784086
C            4.40761650162347       -1.14845454129733       -0.87080742111930
H            0.58486836955211        0.97326848567304        0.55781144190136
H            0.47531770739304       -0.63640327794145        0.09106274334015
H            0.69895834894644        0.55264364955154       -1.05679057917153
H            2.64466571495111       -0.13516220200445        1.07406522533456
H            2.91163683216178        0.99745490735300       -0.26343627834617
H            2.53414833537166       -0.91739390104248       -1.87953882883342
H            1.23597534184453       -2.44100687448547       -0.33746599566477
H            2.69156440435746       -2.61836356341046        0.65400538688299
H            2.38952396922914       -3.41282877522206       -2.28424206099404
H            2.41054148495780       -4.51087282516094       -0.91085287778510
H            4.74283056079708       -3.92148414932624       -0.41860008486657
H            6.30520076216005       -5.06800849048082       -1.47647706634955
H            4.55225349497020       -2.04724267421630       -2.82306675180270
H            5.97150482281667       -2.28924739227138       -1.80668068783339
H            4.81757552863425       -0.19665071717007       -1.21104291183889
H            4.77601747895218       -1.33307538024686        0.13994772317044

          :  Hamiltonian                  GFN2-xTB          :
         :: total energy             -35.933210839182 Eh    ::
         :: gradient norm              0.000959662941 Eh/a0 ::
         :: HOMO-LUMO gap              4.948597403228 eV    ::
         :: SCC energy               -36.366288538119 Eh    ::
         :: -> dispersion             -0.019650763400 Eh    ::
         :: repulsion energy           0.432984484241 Eh    ::

    * Orbital Energies and Occupations

         #    Occupation            Energy/Eh            Energy/eV
      -------------------------------------------------------------
         1        2.0000           -0.8978907             -24.4328
       ...           ...                  ...                  ...
        20        2.0000           -0.6393028             -17.3963
        21        2.0000           -0.6343896             -17.2626
        22        2.0000           -0.6200608             -16.8727
        23        2.0000           -0.6117094             -16.6455
        24        2.0000           -0.6032941             -16.4165
        25        2.0000           -0.6026620             -16.3993
        26        2.0000           -0.5905825             -16.0706
        27        2.0000           -0.5742239             -15.6254
        28        2.0000           -0.5700685             -15.5124
        29        2.0000           -0.5618596             -15.2890
        30        2.0000           -0.5520672             -15.0225
        31        2.0000           -0.5497320             -14.9590
        32        2.0000           -0.5042401             -13.7211 (HOMO)
        33                         -0.3223825              -8.7725 (LUMO)
        34                         -0.2666107              -7.2548
        35                         -0.1686045              -4.5880
        36                         -0.1174380              -3.1957
        37                         -0.1103233              -3.0021
        38                         -0.0841963              -2.2911
        39                         -0.0708494              -1.9279
        40                         -0.0509268              -1.3858
        41                         -0.0431936              -1.1754
        42                         -0.0371049              -1.0097
        43                         -0.0261880              -0.7126
       ...                                ...                  ...
        60                          0.5626726              15.3111
      -------------------------------------------------------------
                  HL-Gap            0.1818576 Eh            4.9486 eV

     #   Z          covCN         q      C6AA      α(0)
     1   7 N        3.483    -0.129    23.799     7.246
     2   6 C        3.734    -0.040    21.375     6.599
     3   6 C        3.856    -0.035    21.157     6.542
     4   6 C        3.807    -0.070    21.836     6.652
     5   6 C        3.810    -0.065    21.736     6.636
     6   6 C        3.853    -0.059    21.590     6.609
     7   6 C        2.695     0.355    20.966     7.494
     8   8 O        1.659    -0.353    19.956     6.031
     9   8 O        0.857    -0.357    20.848     6.122
    10   6 C        3.811    -0.062    21.676     6.627
    11   6 C        3.809    -0.067    21.775     6.642
    12   1 H        0.859     0.269     0.813     1.413
    13   1 H        0.859     0.274     0.796     1.398
    14   1 H        0.859     0.271     0.805     1.406
    15   1 H        0.924     0.105     1.743     2.065
    16   1 H        0.924     0.104     1.746     2.067
    17   1 H        0.924     0.062     2.177     2.308
    18   1 H        0.924     0.026     2.651     2.546
    19   1 H        0.924     0.053     2.283     2.363
    20   1 H        0.924     0.071     2.078     2.254
    21   1 H        0.924     0.058     2.225     2.333
    22   1 H        0.924     0.042     2.425     2.435
    23   1 H        0.805     0.326     0.647     1.263
    24   1 H        0.924     0.061     2.192     2.315
    25   1 H        0.924     0.054     2.275     2.359
    26   1 H        0.924     0.052     2.290     2.367
    27   1 H        0.924     0.053     2.277     2.360

Wiberg/Mayer (AO) data.
largest (>0.10) Wiberg bond orders for each atom

     #   Z sym  total        # sym  WBO       # sym  WBO       # sym  WBO
 ---------------------------------------------------------------------------
     1   7 N    3.674 --     2 C    0.924    12 H    0.913    14 H    0.911
                            13 H    0.895
     2   6 C    3.885 --     3 C    0.992    16 H    0.967    15 H    0.966
                             1 N    0.924
     3   6 C    3.980 --     4 C    0.996     2 C    0.992    11 C    0.988
                            17 H    0.961
     4   6 C    3.995 --     5 C    1.005     3 C    0.996    19 H    0.974
                            18 H    0.965
     5   6 C    3.990 --     4 C    1.005     6 C    0.996    21 H    0.974
                            20 H    0.970
     6   6 C    3.995 --     5 C    0.996    10 C    0.979    22 H    0.963
                             7 C    0.939
     7   6 C    3.919 --     9 O    1.800     8 O    1.142     6 C    0.939
     8   8 O    2.227 --     7 C    1.142    23 H    0.869     9 O    0.169
     9   8 O    2.085 --     7 C    1.800     8 O    0.169
    10   6 C    3.992 --    11 C    1.005     6 C    0.979    25 H    0.974
                            24 H    0.974
    11   6 C    3.992 --    10 C    1.005     3 C    0.988    27 H    0.975
                            26 H    0.973
    12   1 H    0.927 --     1 N    0.913
    13   1 H    0.925 --     1 N    0.895
    14   1 H    0.926 --     1 N    0.911
    15   1 H    0.989 --     2 C    0.966
    16   1 H    0.989 --     2 C    0.967
    17   1 H    0.996 --     3 C    0.961
    18   1 H    0.999 --     4 C    0.965
    19   1 H    0.997 --     4 C    0.974
    20   1 H    0.995 --     5 C    0.970
    21   1 H    0.996 --     5 C    0.974
    22   1 H    0.998 --     6 C    0.963
    23   1 H    0.893 --     8 O    0.869
    24   1 H    0.996 --    10 C    0.974
    25   1 H    0.997 --    10 C    0.974
    26   1 H    0.997 --    11 C    0.973
    27   1 H    0.997 --    11 C    0.975
 ---------------------------------------------------------------------------

molecular dipole:
                 x           y           z       tot (Debye)
 q only:        3.240       0.339       0.777
   full:        3.109       0.588       1.173       8.579

           -------------------------------------------------
          | TOTAL ENERGY              -35.933210839182 Eh   |
          | GRADIENT NORM               0.000959662941 Eh/α |
          | HOMO-LUMO GAP               4.948597403228 eV   |
           -------------------------------------------------

 * finished run on 2023/01/23 at 13:46:47.260
