   * xtb version 6.5.1 (fef0646) compiled by 'conda@b96dff2e9fd6' on 2023-01-04
          program call               : xtb init.xyz --opt -c 0 -u 0 -P 16

   ID    Z sym.   atoms
    1    7 N      1
    2    6 C      2-12, 14-18
    3    9 F      13
    4   17 Cl     19
    5    1 H      20-36

          :  Hamiltonian                  GFN2-xTB          :
 * total energy  :   -55.0677842 Eh     change       -0.6865548E-09 Eh
 * total energy  :   -55.0710372 Eh     change       -0.3252995E-02 Eh
 * total energy  :   -55.0745709 Eh     change       -0.3533702E-02 Eh
 * total energy  :   -55.0778584 Eh     change       -0.3287567E-02 Eh
 * total energy  :   -55.0821629 Eh     change       -0.4304495E-02 Eh
 * total energy  :   -55.0889934 Eh     change       -0.6830424E-02 Eh
 * total energy  :   -55.0875330 Eh     change        0.1460401E-02 Eh
 * total energy  :   -55.0924274 Eh     change       -0.4894407E-02 Eh
 * total energy  :   -55.0941187 Eh     change       -0.1691327E-02 Eh
 * total energy  :   -55.0961670 Eh     change       -0.2048301E-02 Eh
 * total energy  :   -55.1020075 Eh     change       -0.6631840E-04 Eh
 * total energy  :   -55.1020328 Eh     change       -0.2529999E-04 Eh
 * total energy  :   -55.1020645 Eh     change       -0.3163647E-04 Eh
 * total energy  :   -55.1020837 Eh     change       -0.1919908E-04 Eh
 * total energy  :   -55.1020933 Eh     change       -0.9590821E-05 Eh
 * total energy  :   -55.1021022 Eh     change       -0.8944820E-05 Eh
 * total energy  :   -55.1021084 Eh     change       -0.6228166E-05 Eh
 * total energy  :   -55.1021097 Eh     change       -0.1250186E-05 Eh
 * total energy  :   -55.1021121 Eh     change       -0.2385673E-05 Eh
   *** GEOMETRY OPTIMIZATION CONVERGED AFTER 43 ITERATIONS ***

 final structure:
================
36
 xtb: 6.5.1 (fef0646)
N            1.09550024992011        0.89014186141629        0.03197621778261
C            2.55705656846989        0.88838170215473        0.03434544584389
C            3.07608586280663        0.09270936898846        1.23602674055384
C            4.56992536867195        0.20413528959376        1.33063694803781
C            5.15495123362366        1.27540432598777        1.99699904951727
C            6.52609794323464        1.40496219621619        2.06896695668824
C            7.36814402629817        0.46367343576409        1.46993027829890
C            8.81572402265547        0.53826475445444        1.51726073998776
C            9.54566682071308        1.39497114376381        2.24605691903037
C           10.99412979670442        1.45841814375215        2.29899439558891
C           11.82063611044603        0.70559541650195        1.46139752470429
C           13.18938407019101        0.82175514877661        1.57629385908405
F           13.97157295982248        0.08600496201232        0.75453871453120
C           13.79204332629007        1.66177031236440        2.49574813919340
C           12.97399180872791        2.41131812977645        3.32450647571381
C           11.59983527151125        2.31339856973934        3.22625414350033
C            6.77214671596647       -0.60239234790538        0.79022888290587
C            5.39972043155305       -0.73013903958477        0.72382206801462
Cl           0.13831419542511        2.11033511296278        2.52534599358899
H            0.72868622999721        1.42577633115186       -0.74669911517315
H            0.58513234434154        1.54030633562657        1.36049863860914
H            0.73413283837063       -0.05675800169858       -0.02259168547491
H            2.88890520851544        1.92599070808197        0.11613749385294
H            2.97610320550704        0.46842482467205       -0.89137005691527
H            2.78388021083520       -0.95407425829496        1.12812206296983
H            2.61055929689982        0.49161395194426        2.13751142007368
H            4.52093626834776        2.01188745737265        2.46915975391844
H            6.94695672676764        2.25030120733517        2.59080317883828
H            9.31767069698656       -0.20065148886192        0.90661097133323
H            9.04567584991742        2.11108193631137        2.88413882923192
H           11.41570947313677        0.03845583902396        0.71810279729678
H           14.86711381912785        1.72088295398308        2.55061182219669
H           13.41650406548712        3.07684704125665        4.05028690966131
H           10.97618770175606        2.90495176890032        3.88060083393639
H            7.39994235481845       -1.34312489529264        0.31508464284007
H            4.96571692615272       -1.56949019824491        0.19860201023269

          :  Hamiltonian                  GFN2-xTB          :
         :: total energy             -55.102112077659 Eh    ::
         :: gradient norm              0.000332427222 Eh/a0 ::
         :: HOMO-LUMO gap              2.741753444969 eV    ::
         :: SCC energy               -55.937326704600 Eh    ::
         :: -> dispersion             -0.033927861793 Eh    ::
         :: repulsion energy           0.835604958099 Eh    ::

    * Orbital Energies and Occupations

         #    Occupation            Energy/Eh            Energy/eV
      -------------------------------------------------------------
         1        2.0000           -1.0206071             -27.7721
       ...           ...                  ...                  ...
        38        2.0000           -0.4533043             -12.3350
        39        2.0000           -0.4462382             -12.1428
        40        2.0000           -0.4430667             -12.0565
        41        2.0000           -0.4376350             -11.9087
        42        2.0000           -0.4291431             -11.6776
        43        2.0000           -0.4230466             -11.5117
        44        2.0000           -0.4191645             -11.4060
        45        2.0000           -0.4114565             -11.1963
        46        2.0000           -0.4106758             -11.1751
        47        2.0000           -0.4029944             -10.9660
        48        2.0000           -0.3976048             -10.8194
        49        2.0000           -0.3975256             -10.8172
        50        2.0000           -0.3785567             -10.3011 (HOMO)
        51                         -0.2777991              -7.5593 (LUMO)
        52                         -0.2331941              -6.3455
        53                         -0.2281751              -6.2090
        54                         -0.2203255              -5.9954
        55                         -0.1707572              -4.6465
        56                         -0.0976174              -2.6563
        57                         -0.0784473              -2.1347
        58                         -0.0596360              -1.6228
        59                          0.0135340               0.3683
        60                          0.0499656               1.3596
        61                          0.0633113               1.7228
       ...                                ...                  ...
        98                          0.6945442              18.8995
      -------------------------------------------------------------
                  HL-Gap            0.1007576 Eh            2.7418 eV

     #   Z          covCN         q      C6AA      α(0)
     1   7 N        2.690    -0.305    27.859     7.839
     2   6 C        3.733     0.012    20.458     6.456
     3   6 C        3.809    -0.079    21.999     6.677
     4   6 C        2.972     0.012    27.743     8.640
     5   6 C        2.923    -0.039    28.966     8.826
     6   6 C        2.922    -0.033    28.833     8.806
     7   6 C        2.970     0.012    27.751     8.641
     8   6 C        2.901    -0.036    28.884     8.812
     9   6 C        2.901    -0.040    28.992     8.829
    10   6 C        2.973     0.018    27.607     8.619
    11   6 C        2.921    -0.055    29.358     8.885
    12   6 C        2.785     0.169    24.355     8.084
    13   9 F        0.787    -0.232    11.567     4.017
    14   6 C        2.917    -0.051    29.264     8.871
    15   6 C        2.922    -0.029    28.731     8.790
    16   6 C        2.928    -0.041    29.018     8.834
    17   6 C        2.928    -0.035    28.870     8.812
    18   6 C        2.921    -0.039    28.978     8.828
    19  17 Cl       0.837    -0.484   115.107    16.413
    20   1 H        0.860     0.166     1.295     1.783
    21   1 H        0.897     0.333     0.620     1.232
    22   1 H        0.860     0.168     1.286     1.777
    23   1 H        0.924     0.054     2.274     2.358
    24   1 H        0.923     0.026     2.651     2.546
    25   1 H        0.924     0.043     2.405     2.425
    26   1 H        0.925     0.070     2.082     2.256
    27   1 H        0.926     0.040     2.444     2.445
    28   1 H        0.926     0.036     2.496     2.471
    29   1 H        0.925     0.040     2.454     2.450
    30   1 H        0.925     0.041     2.442     2.444
    31   1 H        0.926     0.056     2.242     2.341
    32   1 H        0.926     0.055     2.256     2.349
    33   1 H        0.926     0.043     2.410     2.428
    34   1 H        0.926     0.041     2.436     2.440
    35   1 H        0.926     0.033     2.542     2.493
    36   1 H        0.926     0.030     2.588     2.516

Wiberg/Mayer (AO) data.
largest (>0.10) Wiberg bond orders for each atom

     #   Z sym  total        # sym  WBO       # sym  WBO       # sym  WBO
 ---------------------------------------------------------------------------
     1   7 N    3.236 --     2 C    1.005    20 H    0.958    22 H    0.958
                            21 H    0.203
     2   6 C    3.972 --     1 N    1.005     3 C    0.989    23 H    0.974
                            24 H    0.973
     3   6 C    3.992 --     4 C    1.011     2 C    0.989    25 H    0.973
                            26 H    0.966
     4   6 C    3.977 --    18 C    1.404     5 C    1.395     3 C    1.011
     5   6 C    3.991 --     6 C    1.473     4 C    1.395    27 H    0.968
                            17 C    0.101
     6   6 C    3.983 --     5 C    1.473     7 C    1.358    28 H    0.965
                            18 C    0.101
     7   6 C    3.989 --    17 C    1.364     6 C    1.358     8 C    1.116
     8   6 C    3.990 --     9 C    1.756     7 C    1.116    29 H    0.958
     9   6 C    3.988 --     8 C    1.756    10 C    1.115    30 H    0.958
    10   6 C    3.988 --    11 C    1.363    16 C    1.363     9 C    1.115
    11   6 C    3.980 --    12 C    1.421    10 C    1.363    31 H    0.962
                            15 C    0.103
    12   6 C    3.886 --    11 C    1.421    14 C    1.386    13 F    0.953
    13   9 F    1.082 --    12 C    0.953
    14   6 C    3.977 --    15 C    1.429    12 C    1.386    32 H    0.968
    15   6 C    3.991 --    16 C    1.460    14 C    1.429    33 H    0.970
                            11 C    0.103
    16   6 C    3.981 --    15 C    1.460    10 C    1.363    34 H    0.968
    17   6 C    3.982 --    18 C    1.463     7 C    1.364    35 H    0.968
                             5 C    0.101
    18   6 C    3.991 --    17 C    1.463     4 C    1.404    36 H    0.969
                             6 C    0.101
    19  17 Cl   0.769 --    21 H    0.681
    20   1 H    0.972 --     1 N    0.958
    21   1 H    0.889 --    19 Cl   0.681     1 N    0.203
    22   1 H    0.972 --     1 N    0.958
    23   1 H    0.997 --     2 C    0.974
    24   1 H    0.999 --     2 C    0.973
    25   1 H    0.997 --     3 C    0.973
    26   1 H    0.994 --     3 C    0.966
    27   1 H    0.998 --     5 C    0.968
    28   1 H    0.998 --     6 C    0.965
    29   1 H    0.998 --     8 C    0.958
    30   1 H    0.998 --     9 C    0.958
    31   1 H    0.997 --    11 C    0.962
    32   1 H    0.997 --    14 C    0.968
    33   1 H    0.998 --    15 C    0.970
    34   1 H    0.998 --    16 C    0.968
    35   1 H    0.999 --    17 C    0.968
    36   1 H    0.999 --    18 C    0.969
 ---------------------------------------------------------------------------

molecular dipole:
                 x           y           z       tot (Debye)
 q only:       -0.040      -0.379      -1.062
   full:       -0.229      -0.319      -1.032       2.807

           -------------------------------------------------
          | TOTAL ENERGY              -55.102112077659 Eh   |
          | GRADIENT NORM               0.000332427222 Eh/α |
          | HOMO-LUMO GAP               2.741753444969 eV   |
           -------------------------------------------------

 * finished run on 2023/01/23 at 13:52:23.702
