   * xtb version 6.5.1 (fef0646) compiled by 'conda@b96dff2e9fd6' on 2023-01-04
          program call               : xtb init.xyz --opt -c 0 -u 0 -P 16 --input xtb.inp

   ID    Z sym.   atoms
    1    7 N      1
    2    6 C      2-7, 9-11
    3    8 O      8
    4   17 Cl     12
    5    1 H      13-26

          :  Hamiltonian                  GFN2-xTB          :
 * total energy  :   -37.9103099 Eh     change       -0.1088942E-08 Eh
 * total energy  :   -37.9170783 Eh     change       -0.6768429E-02 Eh
 * total energy  :   -37.9239981 Eh     change       -0.6919785E-02 Eh
 * total energy  :   -37.9289832 Eh     change       -0.4985055E-02 Eh
 * total energy  :   -37.9323310 Eh     change       -0.3347862E-02 Eh
 * total energy  :   -37.9343729 Eh     change       -0.2041818E-02 Eh
 * total energy  :   -37.9353880 Eh     change       -0.1015180E-02 Eh
 * total energy  :   -37.9359719 Eh     change       -0.5838787E-03 Eh
 * total energy  :   -37.9363115 Eh     change       -0.3395819E-03 Eh
 * total energy  :   -37.9364413 Eh     change       -0.1297630E-03 Eh
 * total energy  :   -37.9380960 Eh     change       -0.5590077E-04 Eh
 * total energy  :   -37.9381194 Eh     change       -0.2333289E-04 Eh
 * total energy  :   -37.9381407 Eh     change       -0.2136900E-04 Eh
 * total energy  :   -37.9381675 Eh     change       -0.2672446E-04 Eh
 * total energy  :   -37.9381910 Eh     change       -0.2357939E-04 Eh
 * total energy  :   -37.9382184 Eh     change       -0.2738994E-04 Eh
 * total energy  :   -37.9382342 Eh     change       -0.1582163E-04 Eh
 * total energy  :   -37.9382413 Eh     change       -0.7090908E-05 Eh
 * total energy  :   -37.9382455 Eh     change       -0.4181555E-05 Eh
   *** GEOMETRY OPTIMIZATION CONVERGED AFTER 31 ITERATIONS ***

 final structure:
================
26
 xtb: 6.5.1 (fef0646)
N            2.86239466067452        0.90676573222232        1.61391523465516
C            2.50905714522922        0.27180931461134        0.34559676437289
C            2.95295616882005       -1.19489294235679        0.36233975168855
C            4.44671173232995       -1.29809726563621        0.49526479240897
C            5.03807180258469       -1.47458910306065        1.73745015497143
C            6.41537231799302       -1.52810475483840        1.87840414964848
C            7.23211003398718       -1.40083616072722        0.76105640639500
O            8.59464579689864       -1.43829378515192        0.77641523702538
C            9.24570124817807       -1.66796125071109        2.00179171179821
C            6.64340217668255       -1.21842748633947       -0.49137205306546
C            5.27202300784629       -1.16777909284242       -0.61736672755131
Cl           1.68063337770714       -0.55093999848243        3.84643237062067
H            2.56719137183850        1.87607372102618        1.64114294466101
H            3.86671155101600        0.85795625516317        1.75933844878844
H            2.22944891693196        0.14162448417473        2.77371301720992
H            2.97223150181159        0.78399810294513       -0.50947199469976
H            1.42381409594032        0.32659513629534        0.23643599383866
H            2.62520335212414       -1.66686220133044       -0.56475787915800
H            2.46935638465067       -1.69322947275065        1.20164060846762
H            4.41369029997421       -1.57870277012024        2.61259645367952
H            6.83453338267338       -1.67059437228767        2.86187246670405
H           10.30924670050662       -1.69371435195941        1.77019295667226
H            8.94824123407246       -2.62516718842739        2.44150925317942
H            9.05205570597556       -0.86305305601079        2.71849894383773
H            7.28755232724268       -1.12340093832436       -1.35118208497139
H            4.83303370630853       -1.03208655508083       -1.59554692117818

          :  Hamiltonian                  GFN2-xTB          :
         :: total energy             -37.938245515434 Eh    ::
         :: gradient norm              0.000622160157 Eh/a0 ::
         :: HOMO-LUMO gap              4.153398851290 eV    ::
         :: SCC energy               -38.427910177918 Eh    ::
         :: -> dispersion             -0.022222645566 Eh    ::
         :: repulsion energy           0.489579227935 Eh    ::

    * Orbital Energies and Occupations

         #    Occupation            Energy/Eh            Energy/eV
      -------------------------------------------------------------
         1        2.0000           -1.0147702             -27.6133
       ...           ...                  ...                  ...
        22        2.0000           -0.4803409             -13.0707
        23        2.0000           -0.4796983             -13.0533
        24        2.0000           -0.4756171             -12.9422
        25        2.0000           -0.4674212             -12.7192
        26        2.0000           -0.4546023             -12.3704
        27        2.0000           -0.4453033             -12.1173
        28        2.0000           -0.4361789             -11.8690
        29        2.0000           -0.4214292             -11.4677
        30        2.0000           -0.4081704             -11.1069
        31        2.0000           -0.3980224             -10.8307
        32        2.0000           -0.3919297             -10.6650
        33        2.0000           -0.3917718             -10.6607
        34        2.0000           -0.3787992             -10.3077 (HOMO)
        35                         -0.2261646              -6.1543 (LUMO)
        36                         -0.2169516              -5.9036
        37                         -0.0942679              -2.5652
        38                         -0.0541488              -1.4735
        39                          0.0223258               0.6075
        40                          0.0308363               0.8391
        41                          0.0704273               1.9164
        42                          0.0709395               1.9304
        43                          0.0763555               2.0777
        44                          0.0764540               2.0804
        45                          0.0861296               2.3437
       ...                                ...                  ...
        67                          0.6625864              18.0299
      -------------------------------------------------------------
                  HL-Gap            0.1526346 Eh            4.1534 eV

     #   Z          covCN         q      C6AA      α(0)
     1   7 N        2.732    -0.298    27.674     7.813
     2   6 C        3.733     0.010    20.501     6.463
     3   6 C        3.809    -0.081    22.033     6.682
     4   6 C        2.969    -0.001    28.050     8.687
     5   6 C        2.925    -0.046    29.153     8.855
     6   6 C        2.916    -0.069    29.712     8.939
     7   6 C        2.866     0.140    24.947     8.187
     8   8 O        1.705    -0.272    18.517     5.810
     9   6 C        3.644     0.039    20.260     6.470
    10   6 C        2.919    -0.057    29.413     8.894
    11   6 C        2.924    -0.040    29.006     8.832
    12  17 Cl       0.835    -0.504   115.822    16.464
    13   1 H        0.860     0.166     1.296     1.783
    14   1 H        0.860     0.175     1.246     1.748
    15   1 H        0.935     0.331     0.622     1.233
    16   1 H        0.923     0.028     2.616     2.529
    17   1 H        0.924     0.053     2.288     2.365
    18   1 H        0.924     0.050     2.319     2.382
    19   1 H        0.925     0.070     2.085     2.258
    20   1 H        0.926     0.052     2.298     2.370
    21   1 H        0.926     0.036     2.505     2.475
    22   1 H        0.925     0.061     2.190     2.314
    23   1 H        0.924     0.041     2.440     2.443
    24   1 H        0.924     0.039     2.465     2.455
    25   1 H        0.926     0.046     2.368     2.407
    26   1 H        0.926     0.034     2.533     2.489

Wiberg/Mayer (AO) data.
largest (>0.10) Wiberg bond orders for each atom

     #   Z sym  total        # sym  WBO       # sym  WBO       # sym  WBO
 ---------------------------------------------------------------------------
     1   7 N    3.267 --     2 C    1.006    13 H    0.959    14 H    0.950
                            15 H    0.232
     2   6 C    3.973 --     1 N    1.006     3 C    0.990    17 H    0.974
                            16 H    0.973
     3   6 C    3.992 --     4 C    1.011     2 C    0.990    18 H    0.969
                            19 H    0.969
     4   6 C    3.989 --     5 C    1.418    11 C    1.391     3 C    1.011
     5   6 C    3.990 --     6 C    1.436     4 C    1.418    20 H    0.967
                            10 C    0.108
     6   6 C    3.988 --     5 C    1.436     7 C    1.378    21 H    0.966
                            11 C    0.103
     7   6 C    3.934 --     6 C    1.378    10 C    1.347     8 O    1.058
     8   8 O    2.227 --     7 C    1.058     9 C    0.986
     9   6 C    3.948 --     8 O    0.986    22 H    0.980    23 H    0.977
                            24 H    0.977
    10   6 C    3.988 --    11 C    1.475     7 C    1.347    25 H    0.968
                             5 C    0.108
    11   6 C    3.991 --    10 C    1.475     4 C    1.391    26 H    0.969
                             6 C    0.103
    12  17 Cl   0.749 --    15 H    0.653
    13   1 H    0.972 --     1 N    0.959
    14   1 H    0.970 --     1 N    0.950
    15   1 H    0.890 --    12 Cl   0.653     1 N    0.232
    16   1 H    0.999 --     2 C    0.973
    17   1 H    0.996 --     2 C    0.974
    18   1 H    0.997 --     3 C    0.969
    19   1 H    0.995 --     3 C    0.969
    20   1 H    0.997 --     5 C    0.967
    21   1 H    0.998 --     6 C    0.966
    22   1 H    0.996 --     9 C    0.980
    23   1 H    0.998 --     9 C    0.977
    24   1 H    0.998 --     9 C    0.977
    25   1 H    0.998 --    10 C    0.968
    26   1 H    0.998 --    11 C    0.969
 ---------------------------------------------------------------------------

molecular dipole:
                 x           y           z       tot (Debye)
 q only:        0.870       0.762      -1.217
   full:        0.859       0.809      -0.895       3.764

           -------------------------------------------------
          | TOTAL ENERGY              -37.938245515434 Eh   |
          | GRADIENT NORM               0.000622160157 Eh/α |
          | HOMO-LUMO GAP               4.153398851290 eV   |
           -------------------------------------------------

 * finished run on 2023/01/23 at 19:40:19.311
