   * xtb version 6.5.1 (fef0646) compiled by 'conda@b96dff2e9fd6' on 2023-01-04
          program call               : xtb init.xyz --opt -c 1 -u 0 -P 16 --alpb water

   ID    Z sym.   atoms
    1    7 N      1
    2    6 C      2-12
    3    1 H      13-24

      * Solvation model:               ALPB
        Solvent                        water
        Solvent mass                       1.8000E+01 g/mol
          :  Hamiltonian                  GFN2-xTB          :
 * total energy  :   -32.2545230 Eh     change       -0.2869314E-09 Eh
 * total energy  :   -32.2580666 Eh     change       -0.3543514E-02 Eh
 * total energy  :   -32.2586297 Eh     change       -0.5631589E-03 Eh
 * total energy  :   -32.2586799 Eh     change       -0.5014174E-04 Eh
 * total energy  :   -32.2586987 Eh     change       -0.1884330E-04 Eh
 * total energy  :   -32.2587037 Eh     change       -0.5020159E-05 Eh
 * total energy  :   -32.2587097 Eh     change       -0.6022036E-05 Eh
 * total energy  :   -32.2587170 Eh     change       -0.7302723E-05 Eh
 * total energy  :   -32.2587255 Eh     change       -0.8475019E-05 Eh
 * total energy  :   -32.2587322 Eh     change       -0.6688359E-05 Eh
 * total energy  :   -32.2587360 Eh     change       -0.3754257E-05 Eh
   *** GEOMETRY OPTIMIZATION CONVERGED AFTER 11 ITERATIONS ***

 final structure:
================
24
 xtb: 6.5.1 (fef0646)
N            0.99155680005909        0.10287654887256        0.13105531311801
C            2.47990270114683        0.05603015498969        0.08337594981286
C            2.95388305158893       -0.02806703964875       -1.34358641378240
C            3.08493778082558       -1.28947658559880       -1.95829137649950
C            3.49685728092857       -1.39086747318664       -3.25643225428490
C            3.23409034497390        1.10788808057496       -2.05809436821972
C            3.65843532491346        1.03704243695545       -3.40025038662222
C            3.79463648584238       -0.23700321102035       -4.01231913890941
C            4.22931583188314       -0.30804310602268       -5.35187798286143
C            4.51294626362214        0.83055719704654       -6.05337948384656
C            4.37269505708606        2.09090890727229       -5.44957314217876
C            3.95493477424657        2.19314987366177       -4.15234306755629
H            0.66082818012201        0.12800746707569        1.10273091468031
H            0.59863129024092       -0.72470925269350       -0.33288219916635
H            0.64924419344422        0.93800869827523       -0.35868034715505
H            2.82360378915696       -0.81707290771129        0.63789510767991
H            2.87756521995867        0.95459055353402        0.55409871991808
H            2.87457677353211       -2.18457841277531       -1.39305217507218
H            3.60650322433494       -2.35709699986854       -3.72635957663714
H            3.15060570570220        2.08414080774532       -1.60401427767510
H            4.33665654629381       -1.27832157571332       -5.81544351592543
H            4.84740072797212        0.76992793093523       -7.07867946182658
H            4.60042912010808        2.97782317402102       -6.02234241020650
H            3.84995353201735        3.16277473327961       -3.68809442678386

          :  Hamiltonian                  GFN2-xTB          :
         :: total energy             -32.258735960953 Eh    ::
         :: gradient norm              0.000295850596 Eh/a0 ::
         :: HOMO-LUMO gap              3.218533242221 eV    ::
         :: SCC energy               -32.854102974971 Eh    ::
         :: -> dispersion             -0.020900554697 Eh    ::
         :: -> Gsolv                  -0.118519237081 Eh    ::
         :: repulsion energy           0.595343327610 Eh    ::

    * Orbital Energies and Occupations

         #    Occupation            Energy/Eh            Energy/eV
      -------------------------------------------------------------
         1        2.0000           -0.6943450             -18.8941
       ...           ...                  ...                  ...
        18        2.0000           -0.4945579             -13.4576
        19        2.0000           -0.4938660             -13.4388
        20        2.0000           -0.4827213             -13.1355
        21        2.0000           -0.4758362             -12.9482
        22        2.0000           -0.4677471             -12.7280
        23        2.0000           -0.4660593             -12.6821
        24        2.0000           -0.4556140             -12.3979
        25        2.0000           -0.4434726             -12.0675
        26        2.0000           -0.4297244             -11.6934
        27        2.0000           -0.4221875             -11.4883
        28        2.0000           -0.4166910             -11.3387
        29        2.0000           -0.4042667             -11.0007
        30        2.0000           -0.3829813             -10.4215 (HOMO)
        31                         -0.2647023              -7.2029 (LUMO)
        32                         -0.2353094              -6.4031
        33                         -0.1932862              -5.2596
        34                         -0.1545526              -4.2056
        35                         -0.0659194              -1.7938
        36                         -0.0310962              -0.8462
        37                          0.0584437               1.5903
        38                          0.0773249               2.1041
        39                          0.1062628               2.8916
        40                          0.1158095               3.1513
        41                          0.1308487               3.5606
       ...                                ...                  ...
        60                          0.6923686              18.8403
      -------------------------------------------------------------
                  HL-Gap            0.1182789 Eh            3.2185 eV

     #   Z          covCN         q      C6AA      α(0)
     1   7 N        3.485    -0.159    24.427     7.341
     2   6 C        3.737    -0.046    21.491     6.615
     3   6 C        2.966     0.005    27.916     8.666
     4   6 C        2.919    -0.048    29.203     8.862
     5   6 C        2.917    -0.038    28.935     8.821
     6   6 C        2.922    -0.050    29.245     8.868
     7   6 C        2.986     0.012    27.744     8.640
     8   6 C        2.987     0.011    27.767     8.644
     9   6 C        2.918    -0.040    28.982     8.828
    10   6 C        2.916    -0.033    28.817     8.803
    11   6 C        2.916    -0.034    28.835     8.806
    12   6 C        2.918    -0.042    29.033     8.836
    13   1 H        0.859     0.321     0.655     1.268
    14   1 H        0.859     0.307     0.694     1.305
    15   1 H        0.859     0.307     0.692     1.303
    16   1 H        0.925     0.119     1.621     1.991
    17   1 H        0.925     0.118     1.630     1.997
    18   1 H        0.926     0.062     2.174     2.306
    19   1 H        0.926     0.036     2.506     2.475
    20   1 H        0.926     0.063     2.166     2.302
    21   1 H        0.926     0.031     2.566     2.505
    22   1 H        0.926     0.025     2.657     2.549
    23   1 H        0.926     0.028     2.610     2.526
    24   1 H        0.926     0.045     2.389     2.417

Wiberg/Mayer (AO) data.
largest (>0.10) Wiberg bond orders for each atom

     #   Z sym  total        # sym  WBO       # sym  WBO       # sym  WBO
 ---------------------------------------------------------------------------
     1   7 N    3.652 --     2 C    0.957    14 H    0.892    15 H    0.892
                            13 H    0.884
     2   6 C    3.926 --     3 C    1.009    17 H    0.962    16 H    0.961
                             1 N    0.957
     3   6 C    3.987 --     6 C    1.527     4 C    1.296     2 C    1.009
     4   6 C    3.988 --     5 C    1.561     3 C    1.296    18 H    0.966
     5   6 C    3.991 --     4 C    1.561     8 C    1.278    19 H    0.968
                             6 C    0.116
     6   6 C    3.989 --     3 C    1.527     7 C    1.282    20 H    0.963
                             5 C    0.116
     7   6 C    3.990 --     6 C    1.282    12 C    1.278     8 C    1.251
     8   6 C    3.990 --     9 C    1.280     5 C    1.278     7 C    1.251
     9   6 C    3.991 --    10 C    1.557     8 C    1.280    21 H    0.969
                            12 C    0.119
    10   6 C    3.990 --     9 C    1.557    11 C    1.320    22 H    0.971
    11   6 C    3.992 --    12 C    1.558    10 C    1.320    23 H    0.971
    12   6 C    3.989 --    11 C    1.558     7 C    1.278    24 H    0.967
                             9 C    0.119
    13   1 H    0.896 --     1 N    0.884
    14   1 H    0.906 --     1 N    0.892
    15   1 H    0.905 --     1 N    0.892
    16   1 H    0.985 --     2 C    0.961
    17   1 H    0.986 --     2 C    0.962
    18   1 H    0.996 --     4 C    0.966
    19   1 H    0.998 --     5 C    0.968
    20   1 H    0.996 --     6 C    0.963
    21   1 H    0.999 --     9 C    0.969
    22   1 H    0.999 --    10 C    0.971
    23   1 H    0.999 --    11 C    0.971
    24   1 H    0.998 --    12 C    0.967
 ---------------------------------------------------------------------------

molecular dipole:
                 x           y           z       tot (Debye)
 q only:        2.064       0.211       0.448
   full:        2.091       0.224       0.146       5.358

           -------------------------------------------------
          | TOTAL ENERGY              -32.258735960953 Eh   |
          | GRADIENT NORM               0.000295850596 Eh/α |
          | HOMO-LUMO GAP               3.218533242221 eV   |
           -------------------------------------------------

 * finished run on 2023/01/24 at 14:55:55.856
