   * xtb version 6.5.1 (fef0646) compiled by 'conda@b96dff2e9fd6' on 2023-01-04
          program call               : xtb init.xyz --opt -c 1 -u 0 -P 16

   ID    Z sym.   atoms
    1    7 N      1
    2    6 C      2-5
    3   53 I      6
    4    1 H      7-17

          :  Hamiltonian                  GFN2-xTB          :
 * total energy  :   -20.4596220 Eh     change       -0.6294343E-10 Eh
 * total energy  :   -20.4610053 Eh     change       -0.1383237E-02 Eh
 * total energy  :   -20.4611418 Eh     change       -0.1365163E-03 Eh
 * total energy  :   -20.4612267 Eh     change       -0.8495438E-04 Eh
 * total energy  :   -20.4612361 Eh     change       -0.9348230E-05 Eh
 * total energy  :   -20.4612386 Eh     change       -0.2563958E-05 Eh
 * total energy  :   -20.4612409 Eh     change       -0.2280364E-05 Eh
   *** GEOMETRY OPTIMIZATION CONVERGED AFTER 7 ITERATIONS ***

 final structure:
================
17
 xtb: 6.5.1 (fef0646)
N            0.94107430246269        0.05808408055429       -0.04396653434352
C            2.43861772787474        0.06047242540916       -0.07755803078445
C            2.94721611177202        0.08953680983504       -1.51181872593753
C            4.48074838268687        0.09029448973125       -1.53148636395095
C            5.01215280317759        0.12032695936616       -2.95513700610728
I            7.17830076351323        0.12040841745619       -2.95961609805239
H            0.58890948436044        0.03867965886929        0.92175915909941
H            0.58060929093405       -0.76593552480929       -0.54387977732195
H            0.57867026713280        0.90028283525471       -0.51110956910588
H            2.79608110087631       -0.83514434020769        0.43278962325074
H            2.79404787027809        0.93593401190665        0.46796955009222
H            2.58527474616428        0.98523826500883       -2.02090662482281
H            2.58572862529965       -0.78509955706295       -2.05661104387727
H            4.85244922996361       -0.80227234383758       -1.02546888363813
H            4.85207829934144        0.96097829092728       -0.98842432138387
H            4.69842393102488        1.01936633930278       -3.47995345750348
H            4.69843706313729       -0.75578081770413       -3.51741189561287

          :  Hamiltonian                  GFN2-xTB          :
         :: total energy             -20.461240923401 Eh    ::
         :: gradient norm              0.000353081846 Eh/a0 ::
         :: HOMO-LUMO gap              4.440166737892 eV    ::
         :: SCC energy               -20.699613426574 Eh    ::
         :: -> dispersion             -0.009241712925 Eh    ::
         :: repulsion energy           0.238397178812 Eh    ::

    * Orbital Energies and Occupations

         #    Occupation            Energy/Eh            Energy/eV
      -------------------------------------------------------------
         1        2.0000           -0.9083319             -24.7170
       ...           ...                  ...                  ...
         7        2.0000           -0.7556275             -20.5617
         8        2.0000           -0.7409897             -20.1634
         9        2.0000           -0.7065179             -19.2253
        10        2.0000           -0.7040739             -19.1588
        11        2.0000           -0.6701255             -18.2350
        12        2.0000           -0.6576039             -17.8943
        13        2.0000           -0.6412623             -17.4496
        14        2.0000           -0.6217923             -16.9198
        15        2.0000           -0.6076811             -16.5358
        16        2.0000           -0.5809117             -15.8074
        17        2.0000           -0.5725857             -15.5808
        18        2.0000           -0.4947347             -13.4624
        19        2.0000           -0.4925526             -13.4030 (HOMO)
        20                         -0.3293795              -8.9629 (LUMO)
        21                         -0.2772935              -7.5455
        22                         -0.1732461              -4.7143
        23                         -0.1170775              -3.1858
        24                         -0.1149184              -3.1271
        25                         -0.0805988              -2.1932
        26                         -0.0708000              -1.9266
        27                         -0.0706947              -1.9237
        28                         -0.0646495              -1.7592
        29                         -0.0501062              -1.3635
        30                         -0.0283930              -0.7726
       ...                                ...                  ...
        40                          0.2646178               7.2006
      -------------------------------------------------------------
                  HL-Gap            0.1631731 Eh            4.4402 eV

     #   Z          covCN         q      C6AA      α(0)
     1   7 N        3.482    -0.127    23.751     7.238
     2   6 C        3.732    -0.034    21.276     6.584
     3   6 C        3.803    -0.082    22.057     6.686
     4   6 C        3.928    -0.067    21.713     6.622
     5   6 C        3.782    -0.013    20.832     6.502
     6  53 I        1.094    -0.111   380.172    33.659
     7   1 H        0.859     0.273     0.798     1.400
     8   1 H        0.859     0.274     0.797     1.398
     9   1 H        0.859     0.274     0.797     1.398
    10   1 H        0.924     0.111     1.688     2.032
    11   1 H        0.924     0.111     1.688     2.032
    12   1 H        0.924     0.065     2.144     2.290
    13   1 H        0.924     0.065     2.144     2.290
    14   1 H        0.924     0.066     2.135     2.285
    15   1 H        0.924     0.066     2.135     2.285
    16   1 H        0.932     0.065     2.136     2.285
    17   1 H        0.932     0.065     2.136     2.285

Wiberg/Mayer (AO) data.
largest (>0.10) Wiberg bond orders for each atom

     #   Z sym  total        # sym  WBO       # sym  WBO       # sym  WBO
 ---------------------------------------------------------------------------
     1   7 N    3.675 --     2 C    0.923     7 H    0.911     9 H    0.909
                             8 H    0.909
     2   6 C    3.884 --     3 C    1.009    11 H    0.966    10 H    0.966
                             1 N    0.923
     3   6 C    3.982 --     2 C    1.009     4 C    0.990    12 H    0.972
                            13 H    0.972
     4   6 C    3.988 --     5 C    1.021     3 C    0.990    14 H    0.975
                            15 H    0.975
     5   6 C    3.975 --     4 C    1.021     6 I    0.980    17 H    0.980
                            16 H    0.980
     6  53 I    1.014 --     5 C    0.980
     7   1 H    0.925 --     1 N    0.911
     8   1 H    0.925 --     1 N    0.909
     9   1 H    0.925 --     1 N    0.909
    10   1 H    0.988 --     2 C    0.966
    11   1 H    0.988 --     2 C    0.966
    12   1 H    0.996 --     3 C    0.972
    13   1 H    0.996 --     3 C    0.972
    14   1 H    0.996 --     4 C    0.975
    15   1 H    0.996 --     4 C    0.975
    16   1 H    0.996 --     5 C    0.980
    17   1 H    0.996 --     5 C    0.980
 ---------------------------------------------------------------------------

molecular dipole:
                 x           y           z       tot (Debye)
 q only:        2.033       0.116      -0.355
   full:        1.274       0.116      -0.384       3.394

           -------------------------------------------------
          | TOTAL ENERGY              -20.461240923401 Eh   |
          | GRADIENT NORM               0.000353081846 Eh/α |
          | HOMO-LUMO GAP               4.440166737892 eV   |
           -------------------------------------------------

 * finished run on 2023/01/23 at 14:20:03.115
