   * xtb version 6.5.1 (fef0646) compiled by 'conda@b96dff2e9fd6' on 2023-01-04
          program call               : xtb init.xyz --opt -c 1 -u 0 -P 16 --alpb water

   ID    Z sym.   atoms
    1    7 N      1
    2    6 C      2-6
    3    1 H      7-20

      * Solvation model:               ALPB
        Solvent                        water
        Solvent mass                       1.8000E+01 g/mol
          :  Hamiltonian                  GFN2-xTB          :
 * total energy  :   -20.4427662 Eh     change       -0.8654411E-11 Eh
 * total energy  :   -20.4437908 Eh     change       -0.1024538E-02 Eh
 * total energy  :   -20.4438859 Eh     change       -0.9515935E-04 Eh
 * total energy  :   -20.4438972 Eh     change       -0.1122522E-04 Eh
 * total energy  :   -20.4438992 Eh     change       -0.2064662E-05 Eh
   *** GEOMETRY OPTIMIZATION CONVERGED AFTER 5 ITERATIONS ***

 final structure:
================
20
 xtb: 6.5.1 (fef0646)
N            0.86402755889513       -0.01236480396880       -0.01631147365468
C            2.34752107259785       -0.02324097040608       -0.02847273761358
C            2.87176477655853       -0.69139451096586       -1.29449232213187
C            4.39994599123989       -0.70103265881725       -1.31349847715512
C            4.94460698174034       -1.36694541723491       -2.57598617429334
C            6.46868665498658       -1.37635949631418       -2.59501924257110
H            0.50928092245815        0.44080826525719        0.83353898627015
H            0.50442693486638       -0.97348234982565       -0.05356660463172
H            0.50900368477239        0.49600099250428       -0.83487761482642
H            2.70888505106320       -0.56231718762611        0.84701042672175
H            2.71365950459408        1.00196907460918        0.02247339328477
H            2.51878318074699       -0.15783493845446       -2.17796599802140
H            2.51855420152449       -1.72172857391998       -1.35333418647466
H            4.77881148040465       -1.23673312028060       -0.44100543912363
H            4.77819379028413        0.32182389929283       -1.26351003764624
H            4.58077401379938       -0.83527610418647       -3.45794865251188
H            4.58136125900964       -2.39528649957315       -2.63483232612786
H            6.86088758274165       -0.36199148678607       -2.56225713538490
H            6.83822254742003       -1.85374512030284       -3.49976715875103
H            6.86150281029654       -1.92139899300105       -1.73918722535724

          :  Hamiltonian                  GFN2-xTB          :
         :: total energy             -20.443899224040 Eh    ::
         :: gradient norm              0.000425941285 Eh/a0 ::
         :: HOMO-LUMO gap             10.044710736494 eV    ::
         :: SCC energy               -20.742596656346 Eh    ::
         :: -> dispersion             -0.009322391983 Eh    ::
         :: -> Gsolv                  -0.117334088164 Eh    ::
         :: repulsion energy           0.298718721097 Eh    ::

    * Orbital Energies and Occupations

         #    Occupation            Energy/Eh            Energy/eV
      -------------------------------------------------------------
         1        2.0000           -0.6924319             -18.8420
       ...           ...                  ...                  ...
         7        2.0000           -0.5683578             -15.4658
         8        2.0000           -0.5558966             -15.1267
         9        2.0000           -0.5422604             -14.7557
        10        2.0000           -0.5226664             -14.2225
        11        2.0000           -0.4963211             -13.5056
        12        2.0000           -0.4921581             -13.3923
        13        2.0000           -0.4882961             -13.2872
        14        2.0000           -0.4633606             -12.6087
        15        2.0000           -0.4593748             -12.5002
        16        2.0000           -0.4401330             -11.9766
        17        2.0000           -0.4365711             -11.8797
        18        2.0000           -0.4313881             -11.7387
        19        2.0000           -0.4207018             -11.4479 (HOMO)
        20                         -0.0515655              -1.4032 (LUMO)
        21                          0.0465425               1.2665
        22                          0.0757404               2.0610
        23                          0.0981682               2.6713
        24                          0.1069947               2.9115
        25                          0.1308202               3.5598
        26                          0.1380252               3.7559
        27                          0.1388359               3.7779
        28                          0.1621641               4.4127
        29                          0.1712302               4.6594
        30                          0.1887482               5.1361
       ...                                ...                  ...
        38                          0.3143342               8.5535
      -------------------------------------------------------------
                  HL-Gap            0.3691363 Eh           10.0447 eV

     #   Z          covCN         q      C6AA      α(0)
     1   7 N        3.485    -0.162    24.491     7.350
     2   6 C        3.733    -0.038    21.340     6.594
     3   6 C        3.803    -0.086    22.134     6.698
     4   6 C        3.804    -0.071    21.862     6.657
     5   6 C        3.801    -0.062    21.692     6.631
     6   6 C        3.752    -0.112    22.699     6.794
     7   1 H        0.859     0.316     0.667     1.279
     8   1 H        0.859     0.309     0.688     1.299
     9   1 H        0.859     0.309     0.688     1.300
    10   1 H        0.925     0.107     1.724     2.053
    11   1 H        0.925     0.107     1.724     2.054
    12   1 H        0.924     0.065     2.137     2.286
    13   1 H        0.924     0.065     2.138     2.286
    14   1 H        0.924     0.043     2.408     2.427
    15   1 H        0.924     0.043     2.408     2.427
    16   1 H        0.924     0.035     2.514     2.479
    17   1 H        0.924     0.035     2.514     2.480
    18   1 H        0.925     0.034     2.528     2.486
    19   1 H        0.925     0.028     2.617     2.530
    20   1 H        0.925     0.034     2.528     2.486

Wiberg/Mayer (AO) data.
largest (>0.10) Wiberg bond orders for each atom

     #   Z sym  total        # sym  WBO       # sym  WBO       # sym  WBO
 ---------------------------------------------------------------------------
     1   7 N    3.653 --     2 C    0.966     8 H    0.890     9 H    0.890
                             7 H    0.887
     2   6 C    3.927 --     3 C    1.011    11 H    0.967    10 H    0.967
                             1 N    0.966
     3   6 C    3.991 --     2 C    1.011     4 C    1.004    13 H    0.973
                            12 H    0.973
     4   6 C    3.995 --     5 C    1.008     3 C    1.004    14 H    0.977
                            15 H    0.977
     5   6 C    3.996 --     6 C    1.019     4 C    1.008    17 H    0.978
                            16 H    0.978
     6   6 C    3.996 --     5 C    1.019    18 H    0.988    20 H    0.988
                            19 H    0.988
     7   1 H    0.900 --     1 N    0.887
     8   1 H    0.905 --     1 N    0.890
     9   1 H    0.905 --     1 N    0.890
    10   1 H    0.989 --     2 C    0.967
    11   1 H    0.989 --     2 C    0.967
    12   1 H    0.996 --     3 C    0.973
    13   1 H    0.996 --     3 C    0.973
    14   1 H    0.998 --     4 C    0.977
    15   1 H    0.998 --     4 C    0.977
    16   1 H    0.999 --     5 C    0.978
    17   1 H    0.999 --     5 C    0.978
    18   1 H    0.999 --     6 C    0.988
    19   1 H    0.999 --     6 C    0.988
    20   1 H    0.999 --     6 C    0.988
 ---------------------------------------------------------------------------

molecular dipole:
                 x           y           z       tot (Debye)
 q only:        1.810      -0.030      -0.043
   full:        1.782      -0.051      -0.083       4.537

           -------------------------------------------------
          | TOTAL ENERGY              -20.443899224040 Eh   |
          | GRADIENT NORM               0.000425941285 Eh/α |
          | HOMO-LUMO GAP              10.044710736494 eV   |
           -------------------------------------------------

 * finished run on 2023/01/24 at 14:57:50.629
