   * xtb version 6.5.1 (fef0646) compiled by 'conda@b96dff2e9fd6' on 2023-01-04
          program call               : xtb init.xyz --opt -c 0 -u 0 -P 16

   ID    Z sym.   atoms
    1    7 N      1
    2    6 C      2-5
    3    8 O      6, 7
    4   17 Cl     8
    5    1 H      9-18

          :  Hamiltonian                  GFN2-xTB          :
 * total energy  :   -29.2340883 Eh     change       -0.1744425E-08 Eh
 * total energy  :   -29.2403184 Eh     change       -0.6230097E-02 Eh
 * total energy  :   -29.2467285 Eh     change       -0.6410163E-02 Eh
 * total energy  :   -29.2520046 Eh     change       -0.5276071E-02 Eh
 * total energy  :   -29.2568929 Eh     change       -0.4888274E-02 Eh
 * total energy  :   -29.2593187 Eh     change       -0.2425859E-02 Eh
 * total energy  :   -29.2609967 Eh     change       -0.1677935E-02 Eh
 * total energy  :   -29.2619562 Eh     change       -0.9595293E-03 Eh
 * total energy  :   -29.2621801 Eh     change       -0.2239340E-03 Eh
 * total energy  :   -29.2625509 Eh     change       -0.3707942E-03 Eh
 * total energy  :   -29.2637494 Eh     change       -0.1626236E-04 Eh
 * total energy  :   -29.2637656 Eh     change       -0.1618467E-04 Eh
 * total energy  :   -29.2637851 Eh     change       -0.1954793E-04 Eh
 * total energy  :   -29.2637968 Eh     change       -0.1167544E-04 Eh
 * total energy  :   -29.2638186 Eh     change       -0.2181917E-04 Eh
 * total energy  :   -29.2638310 Eh     change       -0.1242187E-04 Eh
 * total energy  :   -29.2638429 Eh     change       -0.1184941E-04 Eh
 * total energy  :   -29.2638495 Eh     change       -0.6655682E-05 Eh
 * total energy  :   -29.2638526 Eh     change       -0.3110512E-05 Eh
   *** GEOMETRY OPTIMIZATION CONVERGED AFTER 29 ITERATIONS ***

 final structure:
================
18
 xtb: 6.5.1 (fef0646)
N            1.09249039605332       -0.40896283490423       -0.46318776141444
C            2.54914665992175       -0.38901976619942       -0.35662252074391
C            2.96684734464688       -0.86542668065786        1.03121011230683
C            4.45718781222594       -0.65538223786797        1.28229660783897
C            4.92692105832310       -1.41924249877841        2.51016412416551
O            6.13096762260260       -1.04384135572552        2.98088885436195
O            4.31652199324448       -2.30585916947964        3.02727960048282
Cl           0.10214143492318        1.64613045095656        1.39083541546993
H            0.78530028774521       -0.15580334778063       -1.39574830457388
H            0.53519471172077        0.67453052336756        0.53513221703857
H            0.72773168838037       -1.32769460548996       -0.23361631657910
H            2.87026000216025        0.64477930984349       -0.50816674242381
H            3.03161280996467       -1.01329118382430       -1.12359768304192
H            2.73932594278919       -1.92688828610941        1.14557246348514
H            2.39171841030533       -0.31986731573612        1.77926071632216
H            4.67685484428003        0.40902603823806        1.39773423567218
H            5.03620621667204       -1.03065563592583        0.43140431710040
H            6.51894076404231       -0.31051140392584        2.48604066453142

          :  Hamiltonian                  GFN2-xTB          :
         :: total energy             -29.263852636592 Eh    ::
         :: gradient norm              0.000858326770 Eh/a0 ::
         :: HOMO-LUMO gap              4.306975908419 eV    ::
         :: SCC energy               -29.523413576091 Eh    ::
         :: -> dispersion             -0.010825954935 Eh    ::
         :: repulsion energy           0.259532266681 Eh    ::

    * Orbital Energies and Occupations

         #    Occupation            Energy/Eh            Energy/eV
      -------------------------------------------------------------
         1        2.0000           -1.0218664             -27.8064
       ...           ...                  ...                  ...
        13        2.0000           -0.5509334             -14.9917
        14        2.0000           -0.5343591             -14.5407
        15        2.0000           -0.5203111             -14.1584
        16        2.0000           -0.5130623             -13.9611
        17        2.0000           -0.4913471             -13.3702
        18        2.0000           -0.4857254             -13.2173
        19        2.0000           -0.4819433             -13.1143
        20        2.0000           -0.4735512             -12.8860
        21        2.0000           -0.4569868             -12.4352
        22        2.0000           -0.4270752             -11.6213
        23        2.0000           -0.4054784             -11.0336
        24        2.0000           -0.3991489             -10.8614
        25        2.0000           -0.3989309             -10.8555 (HOMO)
        26                         -0.2406524              -6.5485 (LUMO)
        27                         -0.0612993              -1.6680
        28                         -0.0003228              -0.0088
        29                          0.0499825               1.3601
        30                          0.0522807               1.4226
        31                          0.0615044               1.6736
        32                          0.0619338               1.6853
        33                          0.0675448               1.8380
        34                          0.0677395               1.8433
        35                          0.0876478               2.3850
        36                          0.1035138               2.8168
       ...                                ...                  ...
        47                          0.6481821              17.6379
      -------------------------------------------------------------
                  HL-Gap            0.1582785 Eh            4.3070 eV

     #   Z          covCN         q      C6AA      α(0)
     1   7 N        2.682    -0.308    27.932     7.849
     2   6 C        3.732     0.006    20.572     6.474
     3   6 C        3.805    -0.074    21.917     6.665
     4   6 C        3.802    -0.101    22.435     6.744
     5   6 C        2.688     0.358    20.916     7.485
     6   8 O        1.659    -0.371    20.296     6.082
     7   8 O        0.856    -0.359    20.878     6.126
     8  17 Cl       0.838    -0.478   114.896    16.398
     9   1 H        0.860     0.167     1.291     1.780
    10   1 H        0.889     0.334     0.618     1.230
    11   1 H        0.860     0.170     1.271     1.766
    12   1 H        0.924     0.054     2.265     2.354
    13   1 H        0.923     0.026     2.643     2.543
    14   1 H        0.924     0.065     2.144     2.290
    15   1 H        0.925     0.075     2.032     2.229
    16   1 H        0.924     0.055     2.254     2.348
    17   1 H        0.924     0.062     2.175     2.306
    18   1 H        0.805     0.319     0.666     1.282

Wiberg/Mayer (AO) data.
largest (>0.10) Wiberg bond orders for each atom

     #   Z sym  total        # sym  WBO       # sym  WBO       # sym  WBO
 ---------------------------------------------------------------------------
     1   7 N    3.226 --     2 C    1.008     9 H    0.959    11 H    0.957
                            10 H    0.194
     2   6 C    3.976 --     1 N    1.008     3 C    1.007    12 H    0.974
                            13 H    0.972
     3   6 C    3.989 --     2 C    1.007     4 C    1.006    14 H    0.972
                            15 H    0.971
     4   6 C    3.997 --     3 C    1.006     5 C    0.967    16 H    0.964
                            17 H    0.950
     5   6 C    3.918 --     7 O    1.806     6 O    1.114     4 C    0.967
     6   8 O    2.199 --     5 C    1.114    18 H    0.876     7 O    0.162
     7   8 O    2.084 --     5 C    1.806     6 O    0.162
     8  17 Cl   0.774 --    10 H    0.690
     9   1 H    0.972 --     1 N    0.959
    10   1 H    0.888 --     8 Cl   0.690     1 N    0.194
    11   1 H    0.971 --     1 N    0.957
    12   1 H    0.997 --     2 C    0.974
    13   1 H    0.999 --     2 C    0.972
    14   1 H    0.996 --     3 C    0.972
    15   1 H    0.994 --     3 C    0.971
    16   1 H    0.997 --     4 C    0.964
    17   1 H    0.996 --     4 C    0.950
    18   1 H    0.898 --     6 O    0.876
 ---------------------------------------------------------------------------

molecular dipole:
                 x           y           z       tot (Debye)
 q only:        1.089      -0.253      -2.022
   full:        1.089       0.106      -2.273       6.412

           -------------------------------------------------
          | TOTAL ENERGY              -29.263852636592 Eh   |
          | GRADIENT NORM               0.000858326770 Eh/α |
          | HOMO-LUMO GAP               4.306975908419 eV   |
           -------------------------------------------------

 * finished run on 2023/01/23 at 14:12:01.733
