   * xtb version 6.5.1 (fef0646) compiled by 'conda@b96dff2e9fd6' on 2023-01-04
          program call               : xtb init.xyz --opt -c 0 -u 0 -P 16 --alpb water

   ID    Z sym.   atoms
    1    7 N      1
    2    6 C      2-6
    3    8 O      7, 8
    4   17 Cl     9
    5    1 H      10-21

      * Solvation model:               ALPB
        Solvent                        water
        Solvent mass                       1.8000E+01 g/mol
          :  Hamiltonian                  GFN2-xTB          :
 * total energy  :   -32.4785002 Eh     change       -0.2385008E-09 Eh
 * total energy  :   -32.4832835 Eh     change       -0.4783283E-02 Eh
 * total energy  :   -32.4842477 Eh     change       -0.9642183E-03 Eh
 * total energy  :   -32.4846078 Eh     change       -0.3600508E-03 Eh
 * total energy  :   -32.4847576 Eh     change       -0.1497838E-03 Eh
 * total energy  :   -32.4849007 Eh     change       -0.1431288E-03 Eh
 * total energy  :   -32.4850061 Eh     change       -0.1054009E-03 Eh
 * total energy  :   -32.4851069 Eh     change       -0.1007969E-03 Eh
 * total energy  :   -32.4851637 Eh     change       -0.5678007E-04 Eh
 * total energy  :   -32.4852277 Eh     change       -0.6403745E-04 Eh
 * total energy  :   -32.4856501 Eh     change       -0.1026393E-04 Eh
 * total energy  :   -32.4856670 Eh     change       -0.1693915E-04 Eh
 * total energy  :   -32.4856865 Eh     change       -0.1951259E-04 Eh
 * total energy  :   -32.4857101 Eh     change       -0.2355632E-04 Eh
 * total energy  :   -32.4857307 Eh     change       -0.2065347E-04 Eh
 * total energy  :   -32.4857499 Eh     change       -0.1913040E-04 Eh
 * total energy  :   -32.4857632 Eh     change       -0.1330628E-04 Eh
 * total energy  :   -32.4857689 Eh     change       -0.5755119E-05 Eh
 * total energy  :   -32.4857714 Eh     change       -0.2502230E-05 Eh
   *** GEOMETRY OPTIMIZATION CONVERGED AFTER 30 ITERATIONS ***

 final structure:
================
21
 xtb: 6.5.1 (fef0646)
N            1.04114802983603       -0.05622041340111       -0.27148180473901
C            2.51363790611693        0.01882056374884       -0.35883477309437
C            3.12988387462145       -0.99411700441427        0.59981386572064
C            4.65317028518402       -0.90365562047519        0.66065078500050
C            5.14040805741489        0.40690934389512        1.27912731677463
C            6.57629055673636        0.32249240019454        1.73151171323884
O            7.08453647298440        1.43552108140088        2.26686944816314
O            7.26660366532651       -0.66619154149440        1.63978768275676
Cl           0.26142098324873        0.49305059054603        2.64058322590032
H            0.58848328373859        0.62428069620801       -0.88543591803202
H            0.74315659831660        0.14764107374223        0.71657932674999
H            0.71119739339772       -0.99793587846481       -0.49579336390918
H            2.81517001537761        1.02595123019651       -0.07750403803005
H            2.83367989933065       -0.18427041525854       -1.38142848316680
H            2.85960104428676       -2.00322010070394        0.28831918231468
H            2.71150746722839       -0.82743476303680        1.59429737885403
H            5.07935313014999       -1.01564805337233       -0.33696794133679
H            5.03687325273439       -1.72641163707389        1.26646341323655
H            4.52748095924176        0.64684426271688        2.15211540686639
H            5.05943008728444        1.22937970200617        0.56707422862321
H            6.45359703744405        2.17684448303785        2.31007334810899

          :  Hamiltonian                  GFN2-xTB          :
         :: total energy             -32.485771442487 Eh    ::
         :: gradient norm              0.000346640684 Eh/a0 ::
         :: HOMO-LUMO gap              4.507751256543 eV    ::
         :: SCC energy               -32.797784690493 Eh    ::
         :: -> dispersion             -0.012760506576 Eh    ::
         :: -> Gsolv                  -0.093109578381 Eh    ::
         :: repulsion energy           0.311967023342 Eh    ::

    * Orbital Energies and Occupations

         #    Occupation            Energy/Eh            Energy/eV
      -------------------------------------------------------------
         1        2.0000           -1.0070072             -27.4021
       ...           ...                  ...                  ...
        16        2.0000           -0.5090489             -13.8519
        17        2.0000           -0.5057267             -13.7615
        18        2.0000           -0.4909858             -13.3604
        19        2.0000           -0.4764992             -12.9662
        20        2.0000           -0.4736034             -12.8874
        21        2.0000           -0.4632565             -12.6059
        22        2.0000           -0.4530808             -12.3290
        23        2.0000           -0.4317092             -11.7474
        24        2.0000           -0.4298359             -11.6964
        25        2.0000           -0.4194575             -11.4140
        26        2.0000           -0.4034916             -10.9796
        27        2.0000           -0.4012746             -10.9192
        28        2.0000           -0.4007261             -10.9043 (HOMO)
        29                         -0.2350693              -6.3966 (LUMO)
        30                         -0.0284597              -0.7744
        31                          0.0556390               1.5140
        32                          0.0722438               1.9659
        33                          0.0856208               2.3299
        34                          0.0982366               2.6732
        35                          0.1004161               2.7325
        36                          0.1155180               3.1434
        37                          0.1166398               3.1739
        38                          0.1182559               3.2179
        39                          0.1187848               3.2323
       ...                                ...                  ...
        53                          0.6078225              16.5397
      -------------------------------------------------------------
                  HL-Gap            0.1656568 Eh            4.5078 eV

     #   Z          covCN         q      C6AA      α(0)
     1   7 N        3.484    -0.171    24.692     7.380
     2   6 C        3.732    -0.029    21.181     6.569
     3   6 C        3.804    -0.082    22.055     6.686
     4   6 C        3.803    -0.065    21.743     6.638
     5   6 C        3.803    -0.115    22.699     6.783
     6   6 C        2.689     0.370    20.730     7.451
     7   8 O        1.659    -0.434    21.515     6.262
     8   8 O        0.856    -0.469    23.108     6.445
     9  17 Cl       0.045    -0.948   124.919    17.010
    10   1 H        0.859     0.305     0.698     1.308
    11   1 H        0.901     0.295     0.725     1.332
    12   1 H        0.859     0.296     0.725     1.334
    13   1 H        0.925     0.100     1.781     2.087
    14   1 H        0.924     0.107     1.723     2.053
    15   1 H        0.925     0.067     2.124     2.279
    16   1 H        0.924     0.064     2.155     2.295
    17   1 H        0.924     0.059     2.206     2.323
    18   1 H        0.924     0.051     2.302     2.373
    19   1 H        0.924     0.090     1.879     2.144
    20   1 H        0.924     0.095     1.832     2.116
    21   1 H        0.804     0.413     0.461     1.067

Wiberg/Mayer (AO) data.
largest (>0.10) Wiberg bond orders for each atom

     #   Z sym  total        # sym  WBO       # sym  WBO       # sym  WBO
 ---------------------------------------------------------------------------
     1   7 N    3.644 --     2 C    0.969    12 H    0.897    10 H    0.893
                            11 H    0.833
     2   6 C    3.930 --     3 C    1.010     1 N    0.969    14 H    0.967
                            13 H    0.967
     3   6 C    3.991 --     2 C    1.010     4 C    1.007    15 H    0.972
                            16 H    0.971
     4   6 C    3.992 --     3 C    1.007     5 C    1.006    17 H    0.975
                            18 H    0.974
     5   6 C    3.991 --     4 C    1.006     6 C    0.988    20 H    0.946
                            19 H    0.943
     6   6 C    3.898 --     8 O    1.723     7 O    1.148     5 C    0.988
     7   8 O    2.163 --     6 C    1.148    21 H    0.808     8 O    0.156
     8   8 O    1.994 --     6 C    1.723     7 O    0.156
     9  17 Cl   0.101
    10   1 H    0.907 --     1 N    0.893
    11   1 H    0.913 --     1 N    0.833
    12   1 H    0.912 --     1 N    0.897
    13   1 H    0.990 --     2 C    0.967
    14   1 H    0.989 --     2 C    0.967
    15   1 H    0.995 --     3 C    0.972
    16   1 H    0.996 --     3 C    0.971
    17   1 H    0.996 --     4 C    0.975
    18   1 H    0.997 --     4 C    0.974
    19   1 H    0.992 --     5 C    0.943
    20   1 H    0.991 --     5 C    0.946
    21   1 H    0.829 --     7 O    0.808
 ---------------------------------------------------------------------------

molecular dipole:
                 x           y           z       tot (Debye)
 q only:       -0.045       0.386      -5.276
   full:       -0.585       0.659      -4.569      11.827

           -------------------------------------------------
          | TOTAL ENERGY              -32.485771442487 Eh   |
          | GRADIENT NORM               0.000346640684 Eh/α |
          | HOMO-LUMO GAP               4.507751256543 eV   |
           -------------------------------------------------

 * finished run on 2023/01/24 at 14:57:49.761
