   * xtb version 6.5.1 (fef0646) compiled by 'conda@b96dff2e9fd6' on 2023-01-04
          program call               : xtb init.xyz --opt -c 1 -u 0 -P 16

   ID    Z sym.   atoms
    1    7 N      1
    2    6 C      2-7
    3   16 S      8
    4    1 H      9-18

          :  Hamiltonian                  GFN2-xTB          :
 * total energy  :   -23.6579569 Eh     change       -0.7950973E-10 Eh
 * total energy  :   -23.6603182 Eh     change       -0.2361288E-02 Eh
 * total energy  :   -23.6612351 Eh     change       -0.9169032E-03 Eh
 * total energy  :   -23.6618249 Eh     change       -0.5898639E-03 Eh
 * total energy  :   -23.6622562 Eh     change       -0.4312948E-03 Eh
 * total energy  :   -23.6625779 Eh     change       -0.3216479E-03 Eh
 * total energy  :   -23.6628230 Eh     change       -0.2451645E-03 Eh
 * total energy  :   -23.6629700 Eh     change       -0.1469934E-03 Eh
 * total energy  :   -23.6630285 Eh     change       -0.5847454E-04 Eh
 * total energy  :   -23.6630580 Eh     change       -0.2953379E-04 Eh
 * total energy  :   -23.6630784 Eh     change       -0.2031474E-04 Eh
 * total energy  :   -23.6630871 Eh     change       -0.8774637E-05 Eh
 * total energy  :   -23.6630937 Eh     change       -0.6591618E-05 Eh
 * total energy  :   -23.6630984 Eh     change       -0.4718599E-05 Eh
 * total energy  :   -23.6631013 Eh     change       -0.2827038E-05 Eh
   *** GEOMETRY OPTIMIZATION CONVERGED AFTER 15 ITERATIONS ***

 final structure:
================
18
 xtb: 6.5.1 (fef0646)
N            2.87957696701416       -0.69353765102402       -1.21037359810657
C            2.50642564088888        0.09977119657026       -0.00517667182344
C            3.00062864801735       -0.62531209047849        1.24901537249366
C            4.49165732381649       -0.71595931274784        1.27021394641743
C            5.38328782390648        0.03638950664946        1.96314382442643
C            6.73183304826855       -0.29968919362438        1.68631824304390
C            6.85862418887004       -1.29367738972159        0.77822781068201
S            5.32765512779607       -1.88064153733238        0.25567126903637
H            2.77068289870413       -0.15774780992967       -2.07719396350932
H            2.30984409223755       -1.54529409055824       -1.27096633847872
H            3.87937521697684       -0.99429669003051       -1.09004472193993
H            1.42446884038778        0.22986732737092        0.02396492649770
H            2.98096933426279        1.07956895860659       -0.07615895074763
H            2.55746453749597       -1.62206302037377        1.29852289945995
H            2.66665485005345       -0.06896518494471        2.12501391101558
H            5.09902292223221        0.80538931658278        2.65832154095016
H            7.57112553701816        0.18362697702212        2.15098562134582
H            7.74586300205286       -1.74747931203644        0.38497487923670

          :  Hamiltonian                  GFN2-xTB          :
         :: total energy             -23.663101274256 Eh    ::
         :: gradient norm              0.000673791748 Eh/a0 ::
         :: HOMO-LUMO gap              3.918170244446 eV    ::
         :: SCC energy               -24.010889133138 Eh    ::
         :: -> dispersion             -0.013407791828 Eh    ::
         :: repulsion energy           0.347735192244 Eh    ::

    * Orbital Energies and Occupations

         #    Occupation            Energy/Eh            Energy/eV
      -------------------------------------------------------------
         1        2.0000           -0.8853033             -24.0903
       ...           ...                  ...                  ...
        10        2.0000           -0.7000081             -19.0482
        11        2.0000           -0.6874446             -18.7063
        12        2.0000           -0.6775864             -18.4381
        13        2.0000           -0.6649185             -18.0934
        14        2.0000           -0.6494811             -17.6733
        15        2.0000           -0.6361475             -17.3105
        16        2.0000           -0.6112460             -16.6328
        17        2.0000           -0.6063524             -16.4997
        18        2.0000           -0.5944814             -16.1767
        19        2.0000           -0.5863456             -15.9553
        20        2.0000           -0.5781432             -15.7321
        21        2.0000           -0.5333453             -14.5131
        22        2.0000           -0.5244286             -14.2704 (HOMO)
        23                         -0.3804385             -10.3523 (LUMO)
        24                         -0.3478449              -9.4653
        25                         -0.3011662              -8.1951
        26                         -0.2606754              -7.0933
        27                         -0.2445478              -6.6545
        28                         -0.1651868              -4.4950
        29                         -0.1384725              -3.7680
        30                         -0.1222984              -3.3279
        31                         -0.1211215              -3.2959
        32                         -0.0852640              -2.3202
        33                         -0.0614994              -1.6735
       ...                                ...                  ...
        47                          0.5667384              15.4217
      -------------------------------------------------------------
                  HL-Gap            0.1439901 Eh            3.9182 eV

     #   Z          covCN         q      C6AA      α(0)
     1   7 N        3.482    -0.146    24.144     7.298
     2   6 C        3.732    -0.031    21.228     6.576
     3   6 C        3.822    -0.088    22.167     6.700
     4   6 C        2.986    -0.001    28.047     8.687
     5   6 C        3.106    -0.043    28.931     8.813
     6   6 C        3.121    -0.033    28.637     8.764
     7   6 C        2.934    -0.009    28.246     8.716
     8  16 S        2.336    -0.062   143.628    20.171
     9   1 H        0.859     0.266     0.824     1.422
    10   1 H        0.859     0.269     0.812     1.412
    11   1 H        0.868     0.284     0.763     1.368
    12   1 H        0.925     0.108     1.717     2.049
    13   1 H        0.924     0.108     1.711     2.046
    14   1 H        0.924     0.081     1.972     2.196
    15   1 H        0.925     0.102     1.769     2.080
    16   1 H        0.926     0.063     2.164     2.300
    17   1 H        0.926     0.068     2.105     2.269
    18   1 H        0.926     0.065     2.137     2.286

Wiberg/Mayer (AO) data.
largest (>0.10) Wiberg bond orders for each atom

     #   Z sym  total        # sym  WBO       # sym  WBO       # sym  WBO
 ---------------------------------------------------------------------------
     1   7 N    3.663 --     2 C    0.939     9 H    0.915    10 H    0.912
                            11 H    0.843
     2   6 C    3.902 --     3 C    0.994    13 H    0.967    12 H    0.967
                             1 N    0.939
     3   6 C    3.982 --     4 C    1.022     2 C    0.994    14 H    0.963
                            15 H    0.955
     4   6 C    3.942 --     5 C    1.626     8 S    1.121     3 C    1.022
                             7 C    0.121
     5   6 C    3.988 --     4 C    1.626     6 C    1.252    16 H    0.960
     6   6 C    3.989 --     7 C    1.663     5 C    1.252    17 H    0.959
     7   6 C    3.945 --     6 C    1.663     8 S    1.156    18 H    0.967
                             4 C    0.121
     8  16 S    2.612 --     7 C    1.156     4 C    1.121
     9   1 H    0.929 --     1 N    0.915
    10   1 H    0.927 --     1 N    0.912
    11   1 H    0.919 --     1 N    0.843
    12   1 H    0.987 --     2 C    0.967
    13   1 H    0.988 --     2 C    0.967
    14   1 H    0.993 --     3 C    0.963
    15   1 H    0.989 --     3 C    0.955
    16   1 H    0.996 --     5 C    0.960
    17   1 H    0.995 --     6 C    0.959
    18   1 H    0.995 --     7 C    0.967
 ---------------------------------------------------------------------------

molecular dipole:
                 x           y           z       tot (Debye)
 q only:        5.936      -0.939      -1.225
   full:        6.324      -0.981      -1.107      16.507

           -------------------------------------------------
          | TOTAL ENERGY              -23.663101274256 Eh   |
          | GRADIENT NORM               0.000673791748 Eh/α |
          | HOMO-LUMO GAP               3.918170244446 eV   |
           -------------------------------------------------

 * finished run on 2023/01/23 at 14:09:50.368
