   * xtb version 6.5.1 (fef0646) compiled by 'conda@b96dff2e9fd6' on 2023-01-04
          program call               : xtb init.xyz --opt -c 0 -u 0 -P 16 --alpb water

   ID    Z sym.   atoms
    1    7 N      1
    2    6 C      2-7
    3   17 Cl     8
    4    1 H      9-22

      * Solvation model:               ALPB
        Solvent                        water
        Solvent mass                       1.8000E+01 g/mol
          :  Hamiltonian                  GFN2-xTB          :
 * total energy  :   -27.5024377 Eh     change       -0.1779341E-09 Eh
 * total energy  :   -27.5051936 Eh     change       -0.2755956E-02 Eh
 * total energy  :   -27.5061134 Eh     change       -0.9198077E-03 Eh
 * total energy  :   -27.5064478 Eh     change       -0.3343689E-03 Eh
 * total energy  :   -27.5065845 Eh     change       -0.1366662E-03 Eh
 * total energy  :   -27.5066168 Eh     change       -0.3234833E-04 Eh
 * total energy  :   -27.5066342 Eh     change       -0.1735812E-04 Eh
 * total energy  :   -27.5066318 Eh     change        0.2421526E-05 Eh
 * total energy  :   -27.5066428 Eh     change       -0.1099808E-04 Eh
 * total energy  :   -27.5066524 Eh     change       -0.9655683E-05 Eh
 * total energy  :   -27.5066567 Eh     change       -0.4302506E-05 Eh
   *** GEOMETRY OPTIMIZATION CONVERGED AFTER 11 ITERATIONS ***

 final structure:
================
22
 xtb: 6.5.1 (fef0646)
N           -1.86169091867884        0.15994422024043        0.89001214771892
C           -1.06878911742441        0.08628626812216       -0.37442808079329
C           -0.13844197277152        1.29039189334486       -0.47919951265928
C            0.97633096703257        1.25343571822201        0.56494203463204
C            1.75967506107811       -0.05070109685672        0.44621460472143
C            0.83696690630138       -1.25269181582215        0.62578441079894
C           -0.27670782857560       -1.21630785708818       -0.41942326822863
Cl           1.17872785358577       -0.13803255291620       -3.80864915741949
H           -2.39917099714377        1.03283601333083        0.92424743610356
H           -1.21132144802081        0.13726438303560        1.68410609803098
H           -2.49973818177465       -0.64004833775685        0.95895318525880
H           -1.76152747868023        0.10444024346028       -1.21821416572154
H           -0.70194246502831        2.22135371529745       -0.40450993407276
H            0.31298506569631        1.26025209921671       -1.47361490290157
H            0.57990728286981        1.35759366497275        1.57705004642324
H            1.64850683551925        2.09505788282724        0.39315302025510
H            2.56614808186097       -0.07758306560621        1.18172718434875
H            2.21204726604797       -0.10020501227613       -0.54791666330839
H            0.43360082461652       -1.26269495118823        1.64052673102530
H            1.41116436622725       -2.17114416110266        0.49754489185113
H           -0.93891399529825       -2.07522767577496       -0.30342482400250
H            0.17371389256082       -1.28290957568176       -1.41248128206061

          :  Hamiltonian                  GFN2-xTB          :
         :: total energy             -27.506656715217 Eh    ::
         :: gradient norm              0.000371879352 Eh/a0 ::
         :: HOMO-LUMO gap              9.415289868851 eV    ::
         :: SCC energy               -27.830195542536 Eh    ::
         :: -> dispersion             -0.015596082428 Eh    ::
         :: -> Gsolv                  -0.128338378839 Eh    ::
         :: repulsion energy           0.323411263886 Eh    ::

    * Orbital Energies and Occupations

         #    Occupation            Energy/Eh            Energy/eV
      -------------------------------------------------------------
         1        2.0000           -0.9931649             -27.0254
       ...           ...                  ...                  ...
        13        2.0000           -0.4949934             -13.4695
        14        2.0000           -0.4941495             -13.4465
        15        2.0000           -0.4763162             -12.9612
        16        2.0000           -0.4688853             -12.7590
        17        2.0000           -0.4666087             -12.6971
        18        2.0000           -0.4560766             -12.4105
        19        2.0000           -0.4345806             -11.8255
        20        2.0000           -0.4199486             -11.4274
        21        2.0000           -0.4160837             -11.3222
        22        2.0000           -0.4158298             -11.3153
        23        2.0000           -0.3955005             -10.7621
        24        2.0000           -0.3950707             -10.7504
        25        2.0000           -0.3947142             -10.7407 (HOMO)
        26                         -0.0487086              -1.3254 (LUMO)
        27                          0.0378898               1.0310
        28                          0.0764283               2.0797
        29                          0.0803256               2.1858
        30                          0.0935756               2.5463
        31                          0.1041783               2.8348
        32                          0.1046539               2.8478
        33                          0.1192381               3.2446
        34                          0.1333586               3.6289
        35                          0.1336969               3.6381
        36                          0.1348752               3.6701
       ...                                ...                  ...
        51                          0.3155704               8.5871
      -------------------------------------------------------------
                  HL-Gap            0.3460055 Eh            9.4153 eV

     #   Z          covCN         q      C6AA      α(0)
     1   7 N        3.486    -0.166    24.569     7.362
     2   6 C        3.783     0.031    20.062     6.380
     3   6 C        3.808    -0.076    21.946     6.669
     4   6 C        3.804    -0.066    21.770     6.643
     5   6 C        3.806    -0.059    21.630     6.621
     6   6 C        3.804    -0.066    21.769     6.642
     7   6 C        3.808    -0.076    21.947     6.669
     8  17 Cl       0.000    -0.996   126.844    17.140
     9   1 H        0.859     0.312     0.680     1.292
    10   1 H        0.859     0.300     0.714     1.323
    11   1 H        0.859     0.312     0.680     1.292
    12   1 H        0.924     0.087     1.910     2.161
    13   1 H        0.924     0.060     2.195     2.317
    14   1 H        0.924     0.056     2.249     2.345
    15   1 H        0.924     0.059     2.215     2.328
    16   1 H        0.924     0.032     2.553     2.499
    17   1 H        0.924     0.029     2.596     2.520
    18   1 H        0.924     0.020     2.728     2.583
    19   1 H        0.924     0.059     2.217     2.328
    20   1 H        0.924     0.032     2.554     2.499
    21   1 H        0.924     0.060     2.197     2.318
    22   1 H        0.924     0.056     2.245     2.343

Wiberg/Mayer (AO) data.
largest (>0.10) Wiberg bond orders for each atom

     #   Z sym  total        # sym  WBO       # sym  WBO       # sym  WBO
 ---------------------------------------------------------------------------
     1   7 N    3.654 --     2 C    0.946    11 H    0.889     9 H    0.889
                            10 H    0.884
     2   6 C    3.941 --     7 C    0.999     3 C    0.999    12 H    0.961
                             1 N    0.946
     3   6 C    3.990 --     4 C    1.007     2 C    0.999    13 H    0.971
                            14 H    0.968
     4   6 C    3.996 --     5 C    1.009     3 C    1.007    16 H    0.977
                            15 H    0.971
     5   6 C    3.997 --     6 C    1.009     4 C    1.009    18 H    0.978
                            17 H    0.977
     6   6 C    3.996 --     5 C    1.009     7 C    1.007    20 H    0.977
                            19 H    0.970
     7   6 C    3.990 --     6 C    1.007     2 C    0.999    21 H    0.972
                            22 H    0.968
     8  17 Cl   0.008
     9   1 H    0.903 --     1 N    0.889
    10   1 H    0.910 --     1 N    0.884
    11   1 H    0.903 --     1 N    0.889
    12   1 H    0.992 --     2 C    0.961
    13   1 H    0.996 --     3 C    0.971
    14   1 H    0.997 --     3 C    0.968
    15   1 H    0.997 --     4 C    0.971
    16   1 H    0.999 --     4 C    0.977
    17   1 H    0.999 --     5 C    0.977
    18   1 H    1.000 --     5 C    0.978
    19   1 H    0.997 --     6 C    0.970
    20   1 H    0.999 --     6 C    0.977
    21   1 H    0.996 --     7 C    0.972
    22   1 H    0.997 --     7 C    0.968
 ---------------------------------------------------------------------------

molecular dipole:
                 x           y           z       tot (Debye)
 q only:       -5.532       0.549       8.730
   full:       -5.331       0.527       8.360      25.238

           -------------------------------------------------
          | TOTAL ENERGY              -27.506656715217 Eh   |
          | GRADIENT NORM               0.000371879352 Eh/α |
          | HOMO-LUMO GAP               9.415289868851 eV   |
           -------------------------------------------------

 * finished run on 2023/01/24 at 14:55:53.513
