   * xtb version 6.5.1 (fef0646) compiled by 'conda@b96dff2e9fd6' on 2023-01-04
          program call               : xtb init.xyz --opt -c 0 -u 0 -P 16 --alpb water

   ID    Z sym.   atoms
    1    7 N      1
    2    6 C      2-5
    3   53 I      6
    4   17 Cl     7
    5    1 H      8-18

      * Solvation model:               ALPB
        Solvent                        water
        Solvent mass                       1.8000E+01 g/mol
          :  Hamiltonian                  GFN2-xTB          :
 * total energy  :   -25.4934019 Eh     change       -0.5392451E-09 Eh
 * total energy  :   -25.4978960 Eh     change       -0.4494130E-02 Eh
 * total energy  :   -25.4987694 Eh     change       -0.8733925E-03 Eh
 * total energy  :   -25.4990619 Eh     change       -0.2924824E-03 Eh
 * total energy  :   -25.4991863 Eh     change       -0.1244355E-03 Eh
 * total energy  :   -25.4993030 Eh     change       -0.1166241E-03 Eh
 * total energy  :   -25.4994022 Eh     change       -0.9921023E-04 Eh
 * total energy  :   -25.4995221 Eh     change       -0.1199312E-03 Eh
 * total energy  :   -25.4996140 Eh     change       -0.9191647E-04 Eh
 * total energy  :   -25.4996589 Eh     change       -0.4492027E-04 Eh
 * total energy  :   -25.4996926 Eh     change       -0.3366732E-04 Eh
 * total energy  :   -25.4997551 Eh     change       -0.6245685E-04 Eh
 * total energy  :   -25.4997826 Eh     change       -0.2748750E-04 Eh
 * total energy  :   -25.4998125 Eh     change       -0.2993065E-04 Eh
 * total energy  :   -25.4998437 Eh     change       -0.3123109E-04 Eh
 * total energy  :   -25.4998597 Eh     change       -0.1593673E-04 Eh
 * total energy  :   -25.4998786 Eh     change       -0.1893787E-04 Eh
 * total energy  :   -25.4998881 Eh     change       -0.9466177E-05 Eh
 * total energy  :   -25.4998930 Eh     change       -0.4914465E-05 Eh
   *** GEOMETRY OPTIMIZATION CONVERGED AFTER 19 ITERATIONS ***

 final structure:
================
18
 xtb: 6.5.1 (fef0646)
N            1.08293725759591        0.01773631553340        0.48757620267283
C            2.55247322346636       -0.07786039211804        0.58630182761295
C            3.02285403951005       -1.41473807779057        0.02421804580290
C            4.54910674668287       -1.47342143302382       -0.05514231100463
C            4.98530086366032       -2.79264656949670       -0.65868101356017
I            7.15330775731048       -2.94706508051658       -0.80187655202497
Cl           0.32853671974055       -0.52735834140416       -2.42452980382100
H            0.74730889624665        0.93968259897592        0.77430922243467
H            0.62723883079780       -0.70580018404404        1.04868998867697
H            0.79091437372501       -0.13795164162716       -0.51207982321089
H            2.85982531840296        0.02864776397150        1.62723953189390
H            2.99061576944896        0.72863692419723       -0.00105047741982
H            2.59747927934827       -1.53560734784516       -0.97384244328729
H            2.66343440903309       -2.23467444512109        0.64669719147253
H            4.97750612925569       -1.36328681440195        0.94326059340442
H            4.91434700988851       -0.65066795609256       -0.67282467561855
H            4.61200004294358       -2.91074048167130       -1.67249250327951
H            4.67247333294268       -3.63951483752496       -0.05371300074457

          :  Hamiltonian                  GFN2-xTB          :
         :: total energy             -25.499892972726 Eh    ::
         :: gradient norm              0.000494578528 Eh/a0 ::
         :: HOMO-LUMO gap              4.614977066804 eV    ::
         :: SCC energy               -25.739076540690 Eh    ::
         :: -> dispersion             -0.011388496957 Eh    ::
         :: -> Gsolv                  -0.077839195837 Eh    ::
         :: repulsion energy           0.239178027272 Eh    ::

    * Orbital Energies and Occupations

         #    Occupation            Energy/Eh            Energy/eV
      -------------------------------------------------------------
         1        2.0000           -1.0094602             -27.4688
       ...           ...                  ...                  ...
        11        2.0000           -0.5345524             -14.5459
        12        2.0000           -0.5029117             -13.6849
        13        2.0000           -0.4979191             -13.5491
        14        2.0000           -0.4929729             -13.4145
        15        2.0000           -0.4610930             -12.5470
        16        2.0000           -0.4599887             -12.5169
        17        2.0000           -0.4543121             -12.3625
        18        2.0000           -0.4361126             -11.8672
        19        2.0000           -0.4076314             -11.0922
        20        2.0000           -0.4058035             -11.0425
        21        2.0000           -0.4054865             -11.0339
        22        2.0000           -0.4030702             -10.9681
        23        2.0000           -0.4026105             -10.9556 (HOMO)
        24                         -0.2330132              -6.3406 (LUMO)
        25                         -0.0322346              -0.8771
        26                          0.0235224               0.6401
        27                          0.0261683               0.7121
        28                          0.0360361               0.9806
        29                          0.0477911               1.3005
        30                          0.0741699               2.0183
        31                          0.0868614               2.3636
        32                          0.0970926               2.6420
        33                          0.1073995               2.9225
        34                          0.1136365               3.0922
       ...                                ...                  ...
        49                          0.3512646               9.5584
      -------------------------------------------------------------
                  HL-Gap            0.1695973 Eh            4.6150 eV

     #   Z          covCN         q      C6AA      α(0)
     1   7 N        3.484    -0.171    24.694     7.381
     2   6 C        3.733    -0.026    21.137     6.562
     3   6 C        3.806    -0.079    22.009     6.679
     4   6 C        3.905    -0.065    21.680     6.618
     5   6 C        3.783     0.001    20.588     6.464
     6  53 I        1.070    -0.200   386.926    33.956
     7  17 Cl       0.049    -0.946   124.841    17.005
     8   1 H        0.859     0.307     0.692     1.303
     9   1 H        0.859     0.299     0.717     1.326
    10   1 H        0.906     0.296     0.722     1.329
    11   1 H        0.924     0.110     1.700     2.039
    12   1 H        0.925     0.100     1.781     2.087
    13   1 H        0.924     0.064     2.149     2.292
    14   1 H        0.924     0.066     2.135     2.285
    15   1 H        0.924     0.063     2.166     2.301
    16   1 H        0.924     0.055     2.259     2.350
    17   1 H        0.932     0.060     2.201     2.320
    18   1 H        0.932     0.068     2.108     2.270

Wiberg/Mayer (AO) data.
largest (>0.10) Wiberg bond orders for each atom

     #   Z sym  total        # sym  WBO       # sym  WBO       # sym  WBO
 ---------------------------------------------------------------------------
     1   7 N    3.642 --     2 C    0.972     9 H    0.896     8 H    0.892
                            10 H    0.831
     2   6 C    3.928 --     3 C    1.007     1 N    0.972    12 H    0.968
                            11 H    0.967
     3   6 C    3.991 --     2 C    1.007     4 C    0.994    14 H    0.973
                            13 H    0.971
     4   6 C    3.991 --     5 C    1.024     3 C    0.994    16 H    0.976
                            15 H    0.975
     5   6 C    3.948 --     4 C    1.024    17 H    0.981    18 H    0.979
                             6 I    0.946
     6  53 I    0.985 --     5 C    0.946
     7  17 Cl   0.105
     8   1 H    0.905 --     1 N    0.892
     9   1 H    0.911 --     1 N    0.896
    10   1 H    0.912 --     1 N    0.831
    11   1 H    0.988 --     2 C    0.967
    12   1 H    0.990 --     2 C    0.968
    13   1 H    0.996 --     3 C    0.971
    14   1 H    0.996 --     3 C    0.973
    15   1 H    0.996 --     4 C    0.975
    16   1 H    0.997 --     4 C    0.976
    17   1 H    0.996 --     5 C    0.981
    18   1 H    0.995 --     5 C    0.979
 ---------------------------------------------------------------------------

molecular dipole:
                 x           y           z       tot (Debye)
 q only:        0.484       1.170       5.355
   full:       -0.474       1.046       4.568      11.971

           -------------------------------------------------
          | TOTAL ENERGY              -25.499892972726 Eh   |
          | GRADIENT NORM               0.000494578528 Eh/α |
          | HOMO-LUMO GAP               4.614977066804 eV   |
           -------------------------------------------------

 * finished run on 2023/01/24 at 14:57:54.064
