   * xtb version 6.5.1 (fef0646) compiled by 'conda@b96dff2e9fd6' on 2023-01-04
          program call               : xtb init.xyz --opt -c 1 -u 0 -P 16 --input xtb.inp

   ID    Z sym.   atoms
    1    7 N      1
    2    6 C      2, 3, 5-20
    3    8 O      4
    4    1 H      21-36

          :  Hamiltonian                  GFN2-xTB          :
 * total energy  :   -53.2738040 Eh     change       -0.2213284E-08 Eh
 * total energy  :   -53.2800717 Eh     change       -0.6267682E-02 Eh
 * total energy  :   -53.2818151 Eh     change       -0.1743398E-02 Eh
 * total energy  :   -53.2823221 Eh     change       -0.5069612E-03 Eh
 * total energy  :   -53.2829119 Eh     change       -0.5898110E-03 Eh
 * total energy  :   -53.2833785 Eh     change       -0.4666602E-03 Eh
 * total energy  :   -53.2838653 Eh     change       -0.4867581E-03 Eh
 * total energy  :   -53.2843488 Eh     change       -0.4834598E-03 Eh
 * total energy  :   -53.2846262 Eh     change       -0.2774889E-03 Eh
 * total energy  :   -53.2847679 Eh     change       -0.1416632E-03 Eh
 * total energy  :   -53.2853443 Eh     change       -0.1300540E-04 Eh
 * total energy  :   -53.2852762 Eh     change        0.6812783E-04 Eh
 * total energy  :   -53.2853554 Eh     change       -0.7919978E-04 Eh
 * total energy  :   -53.2853630 Eh     change       -0.7581124E-05 Eh
 * total energy  :   -53.2853699 Eh     change       -0.6972803E-05 Eh
 * total energy  :   -53.2853760 Eh     change       -0.6097568E-05 Eh
 * total energy  :   -53.2853818 Eh     change       -0.5771459E-05 Eh
 * total energy  :   -53.2853885 Eh     change       -0.6680328E-05 Eh
 * total energy  :   -53.2853920 Eh     change       -0.3528001E-05 Eh
   *** GEOMETRY OPTIMIZATION CONVERGED AFTER 41 ITERATIONS ***

 final structure:
================
36
 xtb: 6.5.1 (fef0646)
N            4.24538212953864        0.42160447741588       -1.09592352764420
C            2.95034879127183       -0.31165706566570       -1.07217577943319
C            3.28710795690537       -1.73258487003345       -0.59799971013821
O            4.21347479496300       -1.53869595373626        0.44954283966063
C            4.97846058189793       -2.62447646473399        0.89672765981813
C            6.10632503713949       -2.29674218461990        1.66488606861174
C            6.46079916291878       -0.95506675833693        1.99491721872726
C            7.56354395815226       -0.68010367016183        2.73019351758065
C            6.92499390831198       -3.35233141963061        2.13669595036575
C            6.59575960419381       -4.69942855462971        1.84118062288209
C            5.45763774131856       -4.96403479546983        1.08216576426254
C            4.65653929326561       -3.93854963678852        0.61251321977166
C            7.43740704984863       -5.73956870965922        2.33490636913801
C            8.53727369303134       -5.45943288405377        3.07088481228083
C            8.89802726925079       -4.11426112288138        3.37982769804581
C           10.03120152079929       -3.80334289251648        4.13290237218968
C           10.35405045383513       -2.48830907831894        4.41772358277801
C            9.55764695761146       -1.45363572498247        3.96315424868152
C            8.41454104625426       -1.71769182227968        3.20620052093494
C            8.07717203108518       -3.06068272077816        2.90560121201951
H            4.14786289741711        1.42908958155933       -0.94821378245100
H            4.77326485479712        0.25151820591293       -1.95794026789496
H            4.74665894611186       -0.04790615648268       -0.28354192905023
H            2.46602174919781       -0.31401549535133       -2.04708014832551
H            2.29717454657882        0.16813299049782       -0.34222597861698
H            3.73679485762147       -2.32344143144821       -1.40682447025797
H            2.38206961450415       -2.23884719157738       -0.24911725952655
H            5.81266709790444       -0.15028451516315        1.67280121722096
H            7.81684878065119        0.34072068050979        2.97731562738796
H            5.19430590783121       -5.98595079543702        0.85762923501946
H            3.77688616795750       -4.18075010071990        0.03681292552724
H            7.16981995506437       -6.76028703267664        2.10602626034023
H            9.16808255826729       -6.25292882371423        3.44309847435622
H           10.65833062435934       -4.60464747632856        4.49425457426036
H           11.23470784177006       -2.26841299708661        5.00183684115714
H            9.81382061837168       -0.42986759063725        4.19284402032079

          :  Hamiltonian                  GFN2-xTB          :
         :: total energy             -53.285392026571 Eh    ::
         :: gradient norm              0.000473656721 Eh/a0 ::
         :: HOMO-LUMO gap              2.355194072723 eV    ::
         :: SCC energy               -54.198809639905 Eh    ::
         :: -> dispersion             -0.039890374408 Eh    ::
         :: repulsion energy           0.913403922934 Eh    ::

    * Orbital Energies and Occupations

         #    Occupation            Energy/Eh            Energy/eV
      -------------------------------------------------------------
         1        2.0000           -0.8852011             -24.0875
       ...           ...                  ...                  ...
        37        2.0000           -0.5579486             -15.1826
        38        2.0000           -0.5531101             -15.0509
        39        2.0000           -0.5507363             -14.9863
        40        2.0000           -0.5442164             -14.8089
        41        2.0000           -0.5294740             -14.4077
        42        2.0000           -0.5256163             -14.3027
        43        2.0000           -0.5226777             -14.2228
        44        2.0000           -0.5064924             -13.7824
        45        2.0000           -0.4986975             -13.5702
        46        2.0000           -0.4968206             -13.5192
        47        2.0000           -0.4939834             -13.4420
        48        2.0000           -0.4816023             -13.1051
        49        2.0000           -0.4536816             -12.3453 (HOMO)
        50                         -0.3671298              -9.9901 (LUMO)
        51                         -0.3343266              -9.0975
        52                         -0.3113816              -8.4731
        53                         -0.2920770              -7.9478
        54                         -0.2718100              -7.3963
        55                         -0.2492164              -6.7815
        56                         -0.2161366              -5.8814
        57                         -0.1905662              -5.1856
        58                         -0.1556907              -4.2366
        59                         -0.1391188              -3.7856
        60                         -0.1160115              -3.1568
       ...                                ...                  ...
        96                          0.6408816              17.4393
      -------------------------------------------------------------
                  HL-Gap            0.0865518 Eh            2.3552 eV

     #   Z          covCN         q      C6AA      α(0)
     1   7 N        3.484    -0.146    24.154     7.299
     2   6 C        3.730    -0.036    21.316     6.591
     3   6 C        3.688     0.059    19.776     6.365
     4   8 O        1.704    -0.306    19.096     5.900
     5   6 C        2.858     0.110    25.561     8.287
     6   6 C        2.979    -0.010    28.255     8.719
     7   6 C        2.912    -0.042    29.049     8.838
     8   6 C        2.914    -0.031    28.781     8.797
     9   6 C        2.998     0.006    27.875     8.661
    10   6 C        2.981     0.013    27.727     8.637
    11   6 C        2.923    -0.037    28.912     8.818
    12   6 C        2.911    -0.063    29.579     8.918
    13   6 C        2.913    -0.034    28.835     8.805
    14   6 C        2.913    -0.029    28.723     8.788
    15   6 C        2.982     0.018    27.613     8.620
    16   6 C        2.920    -0.028    28.690     8.784
    17   6 C        2.914    -0.023    28.582     8.767
    18   6 C        2.920    -0.031    28.762     8.795
    19   6 C        2.982     0.014    27.695     8.632
    20   6 C        2.997     0.007    27.851     8.657
    21   1 H        0.859     0.263     0.835     1.432
    22   1 H        0.859     0.262     0.839     1.435
    23   1 H        0.855     0.311     0.683     1.295
    24   1 H        0.925     0.108     1.712     2.046
    25   1 H        0.924     0.117     1.634     1.999
    26   1 H        0.923     0.063     2.168     2.303
    27   1 H        0.924     0.084     1.935     2.175
    28   1 H        0.925     0.011     2.882     2.655
    29   1 H        0.926     0.041     2.433     2.439
    30   1 H        0.926     0.052     2.289     2.366
    31   1 H        0.926     0.037     2.494     2.470
    32   1 H        0.926     0.047     2.358     2.401
    33   1 H        0.926     0.050     2.319     2.382
    34   1 H        0.926     0.050     2.322     2.383
    35   1 H        0.926     0.049     2.328     2.386
    36   1 H        0.926     0.044     2.392     2.419

Wiberg/Mayer (AO) data.
largest (>0.10) Wiberg bond orders for each atom

     #   Z sym  total        # sym  WBO       # sym  WBO       # sym  WBO
 ---------------------------------------------------------------------------
     1   7 N    3.656 --     2 C    0.952    21 H    0.918    22 H    0.918
                            23 H    0.813
     2   6 C    3.911 --     3 C    0.997    24 H    0.970    25 H    0.966
                             1 N    0.952
     3   6 C    3.949 --     2 C    0.997     4 O    0.986    26 H    0.965
                            27 H    0.961
     4   8 O    2.192 --     3 C    0.986     5 C    0.957
     5   6 C    3.869 --    12 C    1.407     6 C    1.301     4 O    0.957
     6   6 C    3.986 --     5 C    1.301     9 C    1.257     7 C    1.206
     7   6 C    3.990 --     8 C    1.645     6 C    1.206    28 H    0.963
     8   6 C    3.990 --     7 C    1.645    19 C    1.206    29 H    0.967
     9   6 C    3.989 --     6 C    1.257    20 C    1.254    10 C    1.246
    10   6 C    3.989 --    11 C    1.363     9 C    1.246    13 C    1.199
    11   6 C    3.954 --    12 C    1.431    10 C    1.363    30 H    0.967
    12   6 C    3.981 --    11 C    1.431     5 C    1.407    31 H    0.965
    13   6 C    3.990 --    14 C    1.657    10 C    1.199    32 H    0.967
    14   6 C    3.985 --    13 C    1.657    15 C    1.199    33 H    0.966
    15   6 C    3.990 --    16 C    1.359    20 C    1.252    14 C    1.199
    16   6 C    3.954 --    17 C    1.439    15 C    1.359    34 H    0.968
    17   6 C    3.984 --    18 C    1.446    16 C    1.439    35 H    0.969
    18   6 C    3.955 --    17 C    1.446    19 C    1.352    36 H    0.968
    19   6 C    3.990 --    18 C    1.352    20 C    1.251     8 C    1.206
    20   6 C    3.990 --     9 C    1.254    15 C    1.252    19 C    1.251
    21   1 H    0.931 --     1 N    0.918
    22   1 H    0.931 --     1 N    0.918
    23   1 H    0.903 --     1 N    0.813
    24   1 H    0.988 --     2 C    0.970
    25   1 H    0.986 --     2 C    0.966
    26   1 H    0.995 --     3 C    0.965
    27   1 H    0.992 --     3 C    0.961
    28   1 H    0.999 --     7 C    0.963
    29   1 H    0.997 --     8 C    0.967
    30   1 H    0.996 --    11 C    0.967
    31   1 H    0.998 --    12 C    0.965
    32   1 H    0.996 --    13 C    0.967
    33   1 H    0.996 --    14 C    0.966
    34   1 H    0.997 --    16 C    0.968
    35   1 H    0.997 --    17 C    0.969
    36   1 H    0.997 --    18 C    0.968
 ---------------------------------------------------------------------------

molecular dipole:
                 x           y           z       tot (Debye)
 q only:        8.896      -0.874      -1.114
   full:        8.851      -0.807      -1.254      22.815

           -------------------------------------------------
          | TOTAL ENERGY              -53.285392026571 Eh   |
          | GRADIENT NORM               0.000473656721 Eh/α |
          | HOMO-LUMO GAP               2.355194072723 eV   |
           -------------------------------------------------

 * finished run on 2023/01/23 at 20:57:55.015
