   * xtb version 6.5.1 (fef0646) compiled by 'conda@b96dff2e9fd6' on 2023-01-04
          program call               : xtb init.xyz --opt -c 0 -u 0 -P 16 --alpb water

   ID    Z sym.   atoms
    1    7 N      1, 24, 26
    2    6 C      2-21, 23, 27
    3   16 S      22, 25, 28, 29
    4   17 Cl     30
    5    1 H      31-50

      * Solvation model:               ALPB
        Solvent                        water
        Solvent mass                       1.8000E+01 g/mol
          :  Hamiltonian                  GFN2-xTB          :
 * total energy  :   -83.6269722 Eh     change       -0.1844484E-08 Eh
 * total energy  :   -83.6438813 Eh     change       -0.1690912E-01 Eh
 * total energy  :   -83.6498940 Eh     change       -0.6012734E-02 Eh
 * total energy  :   -83.6517488 Eh     change       -0.1854750E-02 Eh
 * total energy  :   -83.6529854 Eh     change       -0.1236570E-02 Eh
 * total energy  :   -83.6537224 Eh     change       -0.7370419E-03 Eh
 * total energy  :   -83.6543958 Eh     change       -0.6734252E-03 Eh
 * total energy  :   -83.6549239 Eh     change       -0.5281028E-03 Eh
 * total energy  :   -83.6552848 Eh     change       -0.3608950E-03 Eh
 * total energy  :   -83.6556092 Eh     change       -0.3243968E-03 Eh
 * total energy  :   -83.6593965 Eh     change       -0.1023131E-04 Eh
 * total energy  :   -83.6594136 Eh     change       -0.1710965E-04 Eh
 * total energy  :   -83.6594276 Eh     change       -0.1404511E-04 Eh
 * total energy  :   -83.6594450 Eh     change       -0.1741079E-04 Eh
 * total energy  :   -83.6594513 Eh     change       -0.6244374E-05 Eh
 * total energy  :   -83.6594623 Eh     change       -0.1101032E-04 Eh
 * total energy  :   -83.6594694 Eh     change       -0.7073018E-05 Eh
 * total energy  :   -83.6594774 Eh     change       -0.7985535E-05 Eh
 * total energy  :   -83.6594812 Eh     change       -0.3829523E-05 Eh
   *** GEOMETRY OPTIMIZATION CONVERGED AFTER 71 ITERATIONS ***

 final structure:
================
50
 xtb: 6.5.1 (fef0646)
N            2.05084274387228        1.15793394908878        1.64623917113190
C            3.16115409295732        1.16199635135638        0.67775508100397
C            4.07400600139718        2.37294492255185        0.90184472151813
C            5.22005376216311        2.34634050749917       -0.05007991965247
C            5.42140515270222        3.10624772986514       -1.16336049951354
C            6.60618471442765        2.78808119080894       -1.84988241288316
C            7.31777126818393        1.77381363023838       -1.26139746509480
C            8.55393937421403        1.20212125693420       -1.67673027852265
C            9.28461901031067        0.21697139822559       -1.05978597818365
C           10.47154300288083       -0.12413559770837       -1.72894373014744
C           11.41632060093295       -1.13567805368169       -1.16769142033794
C           10.65313261244617        0.61380086358815       -2.88583150222247
C           11.70309191139773        0.56664027273335       -3.86757453897248
C           12.52267690703308       -0.52983354645386       -4.08460652153547
C           13.53656513825877       -0.54742658179323       -5.04532995654274
C           13.80655621440527        0.52107635976651       -5.88260579476716
C           14.85050699244928        0.51623615121109       -6.87871502859195
C           15.37504393773059       -0.53183745062541       -7.60261196765879
C           14.90951311601686       -1.95048840535368       -7.56250616315272
C           16.40959327970852       -0.11014446985775       -8.47113076365475
C           16.66209335260691        1.22143661644342       -8.40469230786588
S           15.62583693533897        2.02221807736965       -7.29400050726752
C           12.98895264277281        1.66532509953622       -5.69944072298290
N           13.04567434231182        2.80866924183735       -6.38489785797159
S           11.91154832216327        3.80682117413692       -5.83545266156102
N           11.28689319112263        2.84338675477048       -4.70769819108185
C           11.94451999893005        1.68360411860810       -4.71231918754003
S            9.35485142240254        1.75711714712588       -3.11674019773556
S            6.50873348597659        1.20202091711791        0.16660983563080
Cl           0.11562223046468       -1.10190940734919        1.01449720132803
H            1.39567328101973        0.35669165045157        1.45024510264905
H            1.50073862974429        2.01781505545241        1.57643171024927
H            2.39803140268699        1.05220461700198        2.60252244912443
H            2.74786953523573        1.18181656314835       -0.33027019297183
H            3.73215524329991        0.24025009068122        0.78940165709374
H            4.46069754781517        2.35309848957871        1.92164750573476
H            3.51845375968514        3.29775631720078        0.74646000496378
H            4.74620100449716        3.87825337922059       -1.48432893865146
H            6.94313734998332        3.27844404470108       -2.74598613656664
H            8.97163214812687       -0.24821361614421       -0.14102556797291
H           11.23765373319788       -1.24243896606143       -0.10080063206369
H           12.44888704972341       -0.83265805260168       -1.32505508389719
H           11.26150092958004       -2.10899334009179       -1.63258621901998
H           12.36793836415333       -1.42467212864519       -3.50822766877493
H           14.14661913854465       -1.43191439700164       -5.11451595035191
H           13.84655565578490       -2.00555972327349       -7.34020289762077
H           15.45473786420290       -2.51244521013723       -6.80438098955311
H           15.09564829494667       -2.42045367868401       -8.52503016671678
H           16.93929210019785       -0.78435360458025       -9.11980815935767
H           17.38812120995933        1.79151229186059       -8.94797026146908

          :  Hamiltonian                  GFN2-xTB          :
         :: total energy             -83.659481193144 Eh    ::
         :: gradient norm              0.000587472201 Eh/a0 ::
         :: HOMO-LUMO gap              1.201544095295 eV    ::
         :: SCC energy               -84.815182770730 Eh    ::
         :: -> dispersion             -0.066188477653 Eh    ::
         :: -> Gsolv                  -0.081422061774 Eh    ::
         :: repulsion energy           1.156350791940 Eh    ::

    * Orbital Energies and Occupations

         #    Occupation            Energy/Eh            Energy/eV
      -------------------------------------------------------------
         1        2.0000           -1.0055920             -27.3636
       ...           ...                  ...                  ...
        65        2.0000           -0.4258956             -11.5892
        66        2.0000           -0.4179033             -11.3717
        67        2.0000           -0.4175711             -11.3627
        68        2.0000           -0.4164215             -11.3314
        69        2.0000           -0.4049402             -11.0190
        70        2.0000           -0.4020995             -10.9417
        71        2.0000           -0.3993011             -10.8655
        72        2.0000           -0.3992856             -10.8651
        73        2.0000           -0.3941769             -10.7261
        74        2.0000           -0.3910478             -10.6410
        75        2.0000           -0.3891196             -10.5885
        76        2.0000           -0.3792981             -10.3212
        77        2.0000           -0.3570059              -9.7146 (HOMO)
        78                         -0.3128500              -8.5131 (LUMO)
        79                         -0.2739731              -7.4552
        80                         -0.2526230              -6.8742
        81                         -0.2274710              -6.1898
        82                         -0.2254488              -6.1348
        83                         -0.2217103              -6.0330
        84                         -0.2075728              -5.6483
        85                         -0.1994881              -5.4283
        86                         -0.1974884              -5.3739
        87                         -0.1912966              -5.2054
        88                         -0.1729684              -4.7067
       ...                                ...                  ...
       165                          0.7177360              19.5306
      -------------------------------------------------------------
                  HL-Gap            0.0441559 Eh            1.2015 eV

     #   Z          covCN         q      C6AA      α(0)
     1   7 N        3.483    -0.166    24.573     7.362
     2   6 C        3.734    -0.023    21.069     6.551
     3   6 C        3.827    -0.090    22.196     6.704
     4   6 C        2.989     0.030    27.334     8.576
     5   6 C        3.107    -0.061    29.365     8.879
     6   6 C        3.108    -0.055    29.205     8.854
     7   6 C        3.023     0.012    27.728     8.637
     8   6 C        3.017     0.020    27.543     8.609
     9   6 C        3.106    -0.066    29.501     8.899
    10   6 C        3.124     0.001    27.814     8.636
    11   6 C        3.755    -0.118    22.824     6.812
    12   6 C        2.994     0.008    27.835     8.654
    13   6 C        3.000    -0.009    28.237     8.717
    14   6 C        2.923    -0.050    29.231     8.866
    15   6 C        2.923    -0.047    29.173     8.857
    16   6 C        2.996    -0.010    28.252     8.719
    17   6 C        2.997     0.007    27.850     8.657
    18   6 C        3.137    -0.002    27.844     8.637
    19   6 C        3.755    -0.118    22.810     6.810
    20   6 C        3.117    -0.059    29.297     8.866
    21   6 C        2.933    -0.026    28.644     8.777
    22  16 S        2.328    -0.054   143.277    20.146
    23   6 C        3.346     0.068    23.935     7.721
    24   7 N        1.859    -0.299    28.603     7.927
    25  16 S        2.660     0.352   127.511    19.005
    26   7 N        1.878    -0.296    28.520     7.917
    27   6 C        3.345     0.069    23.950     7.727
    28  16 S        2.368    -0.070   143.948    20.193
    29  16 S        2.355    -0.041   142.771    20.110
    30  17 Cl       0.060    -0.945   124.799    17.002
    31   1 H        0.916     0.297     0.719     1.326
    32   1 H        0.859     0.300     0.714     1.323
    33   1 H        0.859     0.302     0.708     1.318
    34   1 H        0.925     0.100     1.785     2.089
    35   1 H        0.925     0.104     1.750     2.069
    36   1 H        0.924     0.096     1.820     2.110
    37   1 H        0.925     0.090     1.876     2.142
    38   1 H        0.926     0.059     2.215     2.327
    39   1 H        0.926     0.040     2.452     2.449
    40   1 H        0.926     0.054     2.268     2.355
    41   1 H        0.925     0.064     2.157     2.297
    42   1 H        0.925     0.055     2.263     2.352
    43   1 H        0.925     0.062     2.181     2.310
    44   1 H        0.926     0.064     2.152     2.294
    45   1 H        0.926     0.063     2.169     2.303
    46   1 H        0.925     0.052     2.299     2.371
    47   1 H        0.925     0.062     2.174     2.306
    48   1 H        0.925     0.061     2.188     2.313
    49   1 H        0.926     0.053     2.287     2.365
    50   1 H        0.927     0.062     2.172     2.305

Wiberg/Mayer (AO) data.
largest (>0.10) Wiberg bond orders for each atom

     #   Z sym  total        # sym  WBO       # sym  WBO       # sym  WBO
 ---------------------------------------------------------------------------
     1   7 N    3.645 --     2 C    0.974    32 H    0.894    33 H    0.894
                            31 H    0.827
     2   6 C    3.929 --     3 C    0.989     1 N    0.974    34 H    0.968
                            35 H    0.966
     3   6 C    3.985 --     4 C    1.025     2 C    0.989    37 H    0.963
                            36 H    0.958
     4   6 C    3.923 --     5 C    1.571    29 S    1.157     3 C    1.025
     5   6 C    3.982 --     4 C    1.571     6 C    1.303    38 H    0.962
     6   6 C    3.970 --     7 C    1.503     5 C    1.303    39 H    0.961
     7   6 C    3.950 --     6 C    1.503     8 C    1.164    29 S    1.119
     8   6 C    3.928 --     9 C    1.475     7 C    1.164    28 S    1.131
     9   6 C    3.976 --     8 C    1.475    10 C    1.315    40 H    0.960
    10   6 C    3.950 --    12 C    1.447     9 C    1.315    11 C    1.026
    11   6 C    3.992 --    10 C    1.026    41 H    0.979    42 H    0.974
                            43 H    0.962
    12   6 C    3.928 --    10 C    1.447    13 C    1.144    28 S    1.116
    13   6 C    3.952 --    14 C    1.429    27 C    1.188    12 C    1.144
    14   6 C    3.975 --    13 C    1.429    15 C    1.364    44 H    0.961
    15   6 C    3.987 --    16 C    1.439    14 C    1.364    45 H    0.963
    16   6 C    3.942 --    15 C    1.439    23 C    1.196    17 C    1.121
    17   6 C    3.942 --    18 C    1.491    22 S    1.123    16 C    1.121
    18   6 C    3.952 --    17 C    1.491    20 C    1.268    19 C    1.026
    19   6 C    3.994 --    18 C    1.026    48 H    0.978    46 H    0.976
                            47 H    0.963
    20   6 C    3.982 --    21 C    1.608    18 C    1.268    49 H    0.963
    21   6 C    3.925 --    20 C    1.608    22 S    1.201    50 H    0.967
    22  16 S    2.621 --    21 C    1.201    17 C    1.123
    23   6 C    3.971 --    24 N    1.384    16 C    1.196    27 C    1.171
    24   7 N    3.077 --    25 S    1.419    23 C    1.384    26 N    0.161
    25  16 S    3.166 --    24 N    1.419    26 N    1.411    27 C    0.101
    26   7 N    3.091 --    25 S    1.411    27 C    1.389    24 N    0.161
    27   6 C    3.969 --    26 N    1.389    13 C    1.188    23 C    1.171
                            25 S    0.101
    28  16 S    2.601 --     8 C    1.131    12 C    1.116
    29  16 S    2.575 --     4 C    1.157     7 C    1.119
    30  17 Cl   0.106
    31   1 H    0.911 --     1 N    0.827
    32   1 H    0.910 --     1 N    0.894
    33   1 H    0.909 --     1 N    0.894
    34   1 H    0.990 --     2 C    0.968
    35   1 H    0.989 --     2 C    0.966
    36   1 H    0.989 --     3 C    0.958
    37   1 H    0.991 --     3 C    0.963
    38   1 H    0.996 --     5 C    0.962
    39   1 H    0.998 --     6 C    0.961
    40   1 H    0.996 --     9 C    0.960
    41   1 H    0.995 --    11 C    0.979
    42   1 H    0.996 --    11 C    0.974
    43   1 H    0.994 --    11 C    0.962
    44   1 H    0.994 --    14 C    0.961
    45   1 H    0.994 --    15 C    0.963
    46   1 H    0.997 --    19 C    0.976
    47   1 H    0.994 --    19 C    0.963
    48   1 H    0.996 --    19 C    0.978
    49   1 H    0.997 --    20 C    0.963
    50   1 H    0.995 --    21 C    0.967
 ---------------------------------------------------------------------------

molecular dipole:
                 x           y           z       tot (Debye)
 q only:        3.121       3.088       1.748
   full:        2.950       2.304       1.314      10.085

           -------------------------------------------------
          | TOTAL ENERGY              -83.659481193144 Eh   |
          | GRADIENT NORM               0.000587472201 Eh/α |
          | HOMO-LUMO GAP               1.201544095295 eV   |
           -------------------------------------------------

 * finished run on 2023/01/24 at 14:56:56.457
