   * xtb version 6.5.1 (fef0646) compiled by 'conda@b96dff2e9fd6' on 2023-01-04
          program call               : xtb init.xyz --opt -c 0 -u 0 -P 16 --alpb water

   ID    Z sym.   atoms
    1    7 N      1
    2    6 C      2-12
    3   17 Cl     13
    4    1 H      14-25

      * Solvation model:               ALPB
        Solvent                        water
        Solvent mass                       1.8000E+01 g/mol
          :  Hamiltonian                  GFN2-xTB          :
 * total energy  :   -37.1644795 Eh     change       -0.4679634E-09 Eh
 * total energy  :   -37.1708571 Eh     change       -0.6377686E-02 Eh
 * total energy  :   -37.1722719 Eh     change       -0.1414768E-02 Eh
 * total energy  :   -37.1725740 Eh     change       -0.3020513E-03 Eh
 * total energy  :   -37.1727441 Eh     change       -0.1701116E-03 Eh
 * total energy  :   -37.1728296 Eh     change       -0.8553081E-04 Eh
 * total energy  :   -37.1729345 Eh     change       -0.1048891E-03 Eh
 * total energy  :   -37.1730289 Eh     change       -0.9436945E-04 Eh
 * total energy  :   -37.1730977 Eh     change       -0.6881549E-04 Eh
 * total energy  :   -37.1731753 Eh     change       -0.7757630E-04 Eh
 * total energy  :   -37.1739231 Eh     change       -0.8600955E-05 Eh
 * total energy  :   -37.1739317 Eh     change       -0.8565965E-05 Eh
 * total energy  :   -37.1739452 Eh     change       -0.1352730E-04 Eh
 * total energy  :   -37.1739778 Eh     change       -0.3259203E-04 Eh
 * total energy  :   -37.1739877 Eh     change       -0.9906207E-05 Eh
 * total energy  :   -37.1740000 Eh     change       -0.1227869E-04 Eh
 * total energy  :   -37.1740063 Eh     change       -0.6316729E-05 Eh
 * total energy  :   -37.1740133 Eh     change       -0.6971885E-05 Eh
 * total energy  :   -37.1740181 Eh     change       -0.4791076E-05 Eh
   *** GEOMETRY OPTIMIZATION CONVERGED AFTER 38 ITERATIONS ***

 final structure:
================
25
 xtb: 6.5.1 (fef0646)
N            0.99509948619734        0.11549001176636       -0.03184450364396
C            2.37214519770848       -0.41522115377870        0.09172747124048
C            2.93906142837111       -0.17257436564577        1.46591042076905
C            3.51394972420124       -1.23879922296727        2.18445223641877
C            4.03603097921623       -1.04121467980074        3.43143894350586
C            2.90506152969860        1.07985717353456        2.02458180853928
C            3.42743770244184        1.31303280856607        3.31228945685083
C            4.00483239845213        0.23416546313758        4.03266672928922
C            4.52502538719610        0.47401911392281        5.32163270511665
C            4.47610511721203        1.72418139892058        5.87168154449361
C            3.90526650157614        2.79205869855119        5.15934339441851
C            3.39271988655707        2.59136107915316        3.90860452746381
Cl           0.86763938073919        3.17001784168168       -0.27242256269872
H            0.56868766724219       -0.18196578056624       -0.91260947019842
H            0.99013971133730        1.16607726746145       -0.04164791944370
H            0.41419686819712       -0.18918663317080        0.75318775857273
H            2.99612419475310        0.08565500394055       -0.65095861587417
H            2.36395288258576       -1.48641124973655       -0.11348856976159
H            3.54392234582399       -2.22137544971852        1.73875137097994
H            4.47722477741283       -1.86066867657268        3.97953796084355
H            2.47482105523948        1.91271845463832        1.48709222087769
H            4.96325584041417       -0.34916527243176        5.86739608293113
H            4.87553592252401        1.90287317088398        6.85913768014141
H            3.87496892109133        3.77338564644193        5.61014884723361
H            2.95016509381091        3.40689935178184        3.35321048193265

          :  Hamiltonian                  GFN2-xTB          :
         :: total energy             -37.174018061923 Eh    ::
         :: gradient norm              0.000353666234 Eh/a0 ::
         :: HOMO-LUMO gap              3.214512389300 eV    ::
         :: SCC energy               -37.767472922337 Eh    ::
         :: -> dispersion             -0.023563130638 Eh    ::
         :: -> Gsolv                  -0.073834707802 Eh    ::
         :: repulsion energy           0.593396991005 Eh    ::

    * Orbital Energies and Occupations

         #    Occupation            Energy/Eh            Energy/eV
      -------------------------------------------------------------
         1        2.0000           -1.0074869             -27.4151
       ...           ...                  ...                  ...
        22        2.0000           -0.4676928             -12.7266
        23        2.0000           -0.4609616             -12.5434
        24        2.0000           -0.4596682             -12.5082
        25        2.0000           -0.4453825             -12.1195
        26        2.0000           -0.4362855             -11.8719
        27        2.0000           -0.4215528             -11.4710
        28        2.0000           -0.4158921             -11.3170
        29        2.0000           -0.4106309             -11.1738
        30        2.0000           -0.4040743             -10.9954
        31        2.0000           -0.4011708             -10.9164
        32        2.0000           -0.3990635             -10.8591
        33        2.0000           -0.3959257             -10.7737
        34        2.0000           -0.3747744             -10.1981 (HOMO)
        35                         -0.2566432              -6.9836 (LUMO)
        36                         -0.2264883              -6.1631
        37                         -0.1854848              -5.0473
        38                         -0.1452834              -3.9534
        39                         -0.0560437              -1.5250
        40                         -0.0160736              -0.4374
        41                          0.0776910               2.1141
        42                          0.0924841               2.5166
        43                          0.1008568               2.7445
        44                          0.1117035               3.0396
        45                          0.1163734               3.1667
       ...                                ...                  ...
        69                          0.6996511              19.0385
      -------------------------------------------------------------
                  HL-Gap            0.1181312 Eh            3.2145 eV

     #   Z          covCN         q      C6AA      α(0)
     1   7 N        3.483    -0.167    24.599     7.366
     2   6 C        3.737    -0.035    21.279     6.583
     3   6 C        2.966     0.008    27.832     8.653
     4   6 C        2.919    -0.045    29.128     8.850
     5   6 C        2.917    -0.040    29.005     8.832
     6   6 C        2.922    -0.045    29.125     8.850
     7   6 C        2.987     0.012    27.746     8.641
     8   6 C        2.987     0.010    27.797     8.648
     9   6 C        2.918    -0.041    29.016     8.833
    10   6 C        2.916    -0.036    28.884     8.813
    11   6 C        2.916    -0.035    28.874     8.812
    12   6 C        2.918    -0.036    28.898     8.815
    13  17 Cl       0.041    -0.947   124.854    17.006
    14   1 H        0.859     0.306     0.695     1.306
    15   1 H        0.897     0.293     0.731     1.338
    16   1 H        0.859     0.298     0.719     1.328
    17   1 H        0.924     0.110     1.695     2.036
    18   1 H        0.924     0.114     1.663     2.017
    19   1 H        0.926     0.058     2.227     2.334
    20   1 H        0.926     0.043     2.410     2.427
    21   1 H        0.926     0.055     2.262     2.352
    22   1 H        0.926     0.039     2.467     2.456
    23   1 H        0.926     0.032     2.552     2.498
    24   1 H        0.926     0.026     2.643     2.542
    25   1 H        0.925     0.024     2.677     2.559

Wiberg/Mayer (AO) data.
largest (>0.10) Wiberg bond orders for each atom

     #   Z sym  total        # sym  WBO       # sym  WBO       # sym  WBO
 ---------------------------------------------------------------------------
     1   7 N    3.645 --     2 C    0.964    16 H    0.896    14 H    0.892
                            15 H    0.835
     2   6 C    3.930 --     3 C    1.009     1 N    0.964    18 H    0.964
                            17 H    0.955
     3   6 C    3.988 --     6 C    1.523     4 C    1.300     2 C    1.009
     4   6 C    3.989 --     5 C    1.558     3 C    1.300    19 H    0.966
     5   6 C    3.991 --     4 C    1.558     8 C    1.280    20 H    0.967
                             6 C    0.117
     6   6 C    3.990 --     3 C    1.523     7 C    1.285    21 H    0.960
                             5 C    0.117
     7   6 C    3.991 --     6 C    1.285    12 C    1.276     8 C    1.251
     8   6 C    3.990 --     5 C    1.280     9 C    1.279     7 C    1.251
     9   6 C    3.991 --    10 C    1.558     8 C    1.279    22 H    0.968
                            12 C    0.118
    10   6 C    3.990 --     9 C    1.558    11 C    1.319    23 H    0.971
    11   6 C    3.992 --    12 C    1.560    10 C    1.319    24 H    0.971
    12   6 C    3.992 --    11 C    1.560     7 C    1.276    25 H    0.969
                             9 C    0.118
    13  17 Cl   0.104
    14   1 H    0.906 --     1 N    0.892
    15   1 H    0.914 --     1 N    0.835
    16   1 H    0.911 --     1 N    0.896
    17   1 H    0.987 --     2 C    0.955
    18   1 H    0.987 --     2 C    0.964
    19   1 H    0.996 --     4 C    0.966
    20   1 H    0.997 --     5 C    0.967
    21   1 H    0.997 --     6 C    0.960
    22   1 H    0.998 --     9 C    0.968
    23   1 H    0.998 --    10 C    0.971
    24   1 H    0.999 --    11 C    0.971
    25   1 H    0.999 --    12 C    0.969
 ---------------------------------------------------------------------------

molecular dipole:
                 x           y           z       tot (Debye)
 q only:        0.405      -5.705       0.278
   full:        0.215      -4.801       0.233      12.231

           -------------------------------------------------
          | TOTAL ENERGY              -37.174018061923 Eh   |
          | GRADIENT NORM               0.000353666234 Eh/α |
          | HOMO-LUMO GAP               3.214512389300 eV   |
           -------------------------------------------------

 * finished run on 2023/01/24 at 14:55:55.475
