   * xtb version 6.5.1 (fef0646) compiled by 'conda@b96dff2e9fd6' on 2023-01-04
          program call               : xtb init.xyz --opt -c 1 -u 0 -P 16 --input xtb.inp

   ID    Z sym.   atoms
    1    7 N      1
    2    6 C      2-7
    3    1 H      8-23

          :  Hamiltonian                  GFN2-xTB          :
 * total energy  :   -23.4966118 Eh     change       -0.7581846E-10 Eh
 * total energy  :   -23.4976380 Eh     change       -0.1026206E-02 Eh
 * total energy  :   -23.4977424 Eh     change       -0.1044088E-03 Eh
 * total energy  :   -23.4977582 Eh     change       -0.1577895E-04 Eh
 * total energy  :   -23.4977604 Eh     change       -0.2210630E-05 Eh
   *** GEOMETRY OPTIMIZATION CONVERGED AFTER 5 ITERATIONS ***

 final structure:
================
23
 xtb: 6.5.1 (fef0646)
N            0.92653852510125       -0.05016692736888        0.07465150993617
C            2.42585419076778       -0.03562935657016        0.08541039552427
C            2.94191161423612        1.18884807871750        0.82553395525171
C            4.47343060196848        1.21232976264228        0.84013635523123
C            5.00668614853205        2.43776378844542        1.58070635038561
C            6.53376849820280        2.46956557672399        1.59991668639981
C            7.05659394205104        3.69425750625951        2.33985535544868
H            0.55941274345646       -0.87161973977500       -0.42179646027353
H            0.57608994659741        0.80109348063915       -0.38459270466683
H            0.57418023309231       -0.05970184313337        1.04114816873535
H            2.77752298622872       -0.03204743143501       -0.94706301417338
H            2.77553921081382       -0.94815923454546        0.56986214205922
H            2.58127544843532        1.18307539487302        1.85596059071933
H            2.58174276485144        2.09848939298669        0.34105855273956
H            4.84723453182230        1.22076354775236       -0.18482612249125
H            4.84686320022189        0.30880221383858        1.32441546741936
H            4.63626123464334        2.43205038587664        2.60781183763761
H            4.63627713708797        3.34442479090109        1.09804545754321
H            6.90820962373295        2.47740363173305        0.57447128144886
H            6.90822163350749        1.56545527129208        2.08382980616521
H            6.71143810106762        4.60761653031374        1.86115634615902
H            8.14281252418384        3.69908346258238        2.34268408150817
H            6.71155515939757        3.69529171725042        3.37109396129260

          :  Hamiltonian                  GFN2-xTB          :
         :: total energy             -23.497760375715 Eh    ::
         :: gradient norm              0.000463053923 Eh/a0 ::
         :: HOMO-LUMO gap              6.633189436999 eV    ::
         :: SCC energy               -23.841776555758 Eh    ::
         :: -> dispersion             -0.011429535602 Eh    ::
         :: repulsion energy           0.344073373590 Eh    ::

    * Orbital Energies and Occupations

         #    Occupation            Energy/Eh            Energy/eV
      -------------------------------------------------------------
         1        2.0000           -0.8980031             -24.4359
       ...           ...                  ...                  ...
        10        2.0000           -0.6741915             -18.3457
        11        2.0000           -0.6574365             -17.8898
        12        2.0000           -0.6411852             -17.4475
        13        2.0000           -0.6377913             -17.3552
        14        2.0000           -0.6121987             -16.6588
        15        2.0000           -0.6047606             -16.4564
        16        2.0000           -0.5871143             -15.9762
        17        2.0000           -0.5743964             -15.6301
        18        2.0000           -0.5611670             -15.2701
        19        2.0000           -0.5417069             -14.7406
        20        2.0000           -0.5333529             -14.5133
        21        2.0000           -0.5200731             -14.1519
        22        2.0000           -0.5117761             -13.9261 (HOMO)
        23                         -0.2680109              -7.2929 (LUMO)
        24                         -0.1646946              -4.4816
        25                         -0.1057727              -2.8782
        26                         -0.1041365              -2.8337
        27                         -0.0608449              -1.6557
        28                         -0.0400211              -1.0890
        29                         -0.0184282              -0.5015
        30                         -0.0057565              -0.1566
        31                          0.0104202               0.2835
        32                          0.0327091               0.8901
        33                          0.0336566               0.9158
       ...                                ...                  ...
        44                          0.2180338               5.9330
      -------------------------------------------------------------
                  HL-Gap            0.2437652 Eh            6.6332 eV

     #   Z          covCN         q      C6AA      α(0)
     1   7 N        3.482    -0.128    23.767     7.241
     2   6 C        3.731    -0.034    21.273     6.584
     3   6 C        3.803    -0.081    22.041     6.684
     4   6 C        3.804    -0.067    21.778     6.644
     5   6 C        3.804    -0.065    21.736     6.637
     6   6 C        3.801    -0.057    21.596     6.616
     7   6 C        3.753    -0.109    22.643     6.786
     8   1 H        0.859     0.270     0.811     1.410
     9   1 H        0.859     0.272     0.802     1.402
    10   1 H        0.859     0.272     0.802     1.402
    11   1 H        0.924     0.107     1.724     2.053
    12   1 H        0.924     0.107     1.724     2.053
    13   1 H        0.924     0.062     2.177     2.307
    14   1 H        0.924     0.062     2.177     2.307
    15   1 H        0.924     0.050     2.324     2.384
    16   1 H        0.924     0.050     2.324     2.384
    17   1 H        0.924     0.042     2.424     2.435
    18   1 H        0.924     0.042     2.424     2.435
    19   1 H        0.924     0.037     2.484     2.465
    20   1 H        0.924     0.037     2.484     2.465
    21   1 H        0.925     0.041     2.439     2.442
    22   1 H        0.925     0.048     2.342     2.393
    23   1 H        0.925     0.041     2.439     2.442

Wiberg/Mayer (AO) data.
largest (>0.10) Wiberg bond orders for each atom

     #   Z sym  total        # sym  WBO       # sym  WBO       # sym  WBO
 ---------------------------------------------------------------------------
     1   7 N    3.675 --     2 C    0.919     8 H    0.913    10 H    0.910
                             9 H    0.910
     2   6 C    3.883 --     3 C    1.008    12 H    0.967    11 H    0.967
                             1 N    0.919
     3   6 C    3.979 --     2 C    1.008     4 C    0.993    13 H    0.972
                            14 H    0.972
     4   6 C    3.987 --     5 C    1.004     3 C    0.993    16 H    0.976
                            15 H    0.976
     5   6 C    3.993 --     6 C    1.006     4 C    1.004    17 H    0.977
                            18 H    0.977
     6   6 C    3.995 --     7 C    1.019     5 C    1.006    20 H    0.978
                            19 H    0.978
     7   6 C    3.994 --     6 C    1.019    23 H    0.987    21 H    0.987
                            22 H    0.986
     8   1 H    0.927 --     1 N    0.913
     9   1 H    0.926 --     1 N    0.910
    10   1 H    0.926 --     1 N    0.910
    11   1 H    0.989 --     2 C    0.967
    12   1 H    0.989 --     2 C    0.967
    13   1 H    0.996 --     3 C    0.972
    14   1 H    0.996 --     3 C    0.972
    15   1 H    0.998 --     4 C    0.976
    16   1 H    0.998 --     4 C    0.976
    17   1 H    0.998 --     5 C    0.977
    18   1 H    0.998 --     5 C    0.977
    19   1 H    0.999 --     6 C    0.978
    20   1 H    0.999 --     6 C    0.978
    21   1 H    0.998 --     7 C    0.987
    22   1 H    0.997 --     7 C    0.986
    23   1 H    0.998 --     7 C    0.987
 ---------------------------------------------------------------------------

molecular dipole:
                 x           y           z       tot (Debye)
 q only:        2.839       0.342       0.406
   full:        2.494       0.234       0.340       6.425

           -------------------------------------------------
          | TOTAL ENERGY              -23.497760375715 Eh   |
          | GRADIENT NORM               0.000463053923 Eh/α |
          | HOMO-LUMO GAP               6.633189436999 eV   |
           -------------------------------------------------

 * finished run on 2023/01/23 at 20:12:41.903
