   * xtb version 6.5.1 (fef0646) compiled by 'conda@b96dff2e9fd6' on 2023-01-04
          program call               : xtb init.xyz --opt -c 1 -u 0 -P 16 --alpb water

   ID    Z sym.   atoms
    1    7 N      1
    2    6 C      2-7
    3    1 H      8-23

      * Solvation model:               ALPB
        Solvent                        water
        Solvent mass                       1.8000E+01 g/mol
          :  Hamiltonian                  GFN2-xTB          :
 * total energy  :   -23.6072707 Eh     change       -0.1138645E-10 Eh
 * total energy  :   -23.6083739 Eh     change       -0.1103239E-02 Eh
 * total energy  :   -23.6084720 Eh     change       -0.9811289E-04 Eh
 * total energy  :   -23.6084851 Eh     change       -0.1311459E-04 Eh
 * total energy  :   -23.6084872 Eh     change       -0.2117374E-05 Eh
   *** GEOMETRY OPTIMIZATION CONVERGED AFTER 5 ITERATIONS ***

 final structure:
================
23
 xtb: 6.5.1 (fef0646)
N            0.94674076197695        0.04642468285121       -0.07246589102089
C            2.43026963656581        0.03872573543885       -0.08154209421412
C            2.95529040726890       -1.01181154219653       -1.05361896559242
C            4.48341695632612       -1.02974323288959       -1.07099816838798
C            5.01948478306331       -2.08068056311959       -2.04131042906604
C            6.54586223082473       -2.11031660914725       -2.06941990030388
C            7.07130749730262       -3.16189774670946       -3.04003832342728
H            0.58935645009205        0.74865743664076        0.58492034115794
H            0.59104542251361       -0.87643263083704        0.20379473877625
H            0.58998272812056        0.25994045447745       -1.01140365009085
H            2.79379723637789       -0.17674387138211        0.92300160332289
H            2.79173850074292        1.02416201814217       -0.37480945690178
H            2.60147340021549       -0.80275689808716       -2.06392874930687
H            2.60236436455993       -2.00287174629983       -0.76566019363336
H            4.86406955027175       -1.24489219331655       -0.07073222046416
H            4.86344480854151       -0.04965182637288       -1.36545942947177
H            4.65255943272368       -1.87255852765370       -3.04895466611369
H            4.65329063012056       -3.06864917358139       -1.75298200188961
H            6.92592050373015       -2.32457481644995       -1.06786667140041
H            6.92530410317544       -1.12898749491814       -2.36352282725407
H            6.72626249390443       -4.15370455890274       -2.75520982734805
H            8.15889013558302       -3.16914055127889       -3.04723480176349
H            6.72561796599857       -2.95767634440764       -4.05129841560636

          :  Hamiltonian                  GFN2-xTB          :
         :: total energy             -23.608487249249 Eh    ::
         :: gradient norm              0.000447885378 Eh/a0 ::
         :: HOMO-LUMO gap              9.976216997000 eV    ::
         :: SCC energy               -23.953881251442 Eh    ::
         :: -> dispersion             -0.011519796569 Eh    ::
         :: -> Gsolv                  -0.117682942109 Eh    ::
         :: repulsion energy           0.345451297917 Eh    ::

    * Orbital Energies and Occupations

         #    Occupation            Energy/Eh            Energy/eV
      -------------------------------------------------------------
         1        2.0000           -0.6924305             -18.8420
       ...           ...                  ...                  ...
        10        2.0000           -0.5429503             -14.7744
        11        2.0000           -0.5239179             -14.2565
        12        2.0000           -0.5039417             -13.7130
        13        2.0000           -0.4962776             -13.5044
        14        2.0000           -0.4843210             -13.1790
        15        2.0000           -0.4760214             -12.9532
        16        2.0000           -0.4722925             -12.8517
        17        2.0000           -0.4508446             -12.2681
        18        2.0000           -0.4488780             -12.2146
        19        2.0000           -0.4330677             -11.7844
        20        2.0000           -0.4290823             -11.6759
        21        2.0000           -0.4274569             -11.6317
        22        2.0000           -0.4182708             -11.3817 (HOMO)
        23                         -0.0516516              -1.4055 (LUMO)
        24                          0.0436753               1.1885
        25                          0.0722995               1.9674
        26                          0.0971248               2.6429
        27                          0.1043092               2.8384
        28                          0.1166950               3.1754
        29                          0.1293592               3.5200
        30                          0.1315492               3.5796
        31                          0.1471076               4.0030
        32                          0.1674982               4.5579
        33                          0.1742528               4.7417
       ...                                ...                  ...
        44                          0.3182445               8.6599
      -------------------------------------------------------------
                  HL-Gap            0.3666192 Eh            9.9762 eV

     #   Z          covCN         q      C6AA      α(0)
     1   7 N        3.485    -0.162    24.491     7.350
     2   6 C        3.732    -0.038    21.343     6.594
     3   6 C        3.803    -0.086    22.134     6.698
     4   6 C        3.804    -0.071    21.850     6.655
     5   6 C        3.803    -0.068    21.798     6.647
     6   6 C        3.801    -0.060    21.650     6.625
     7   6 C        3.752    -0.110    22.667     6.789
     8   1 H        0.859     0.316     0.667     1.279
     9   1 H        0.859     0.309     0.688     1.300
    10   1 H        0.859     0.309     0.688     1.299
    11   1 H        0.925     0.107     1.724     2.053
    12   1 H        0.925     0.107     1.724     2.053
    13   1 H        0.924     0.066     2.127     2.281
    14   1 H        0.924     0.066     2.128     2.281
    15   1 H        0.924     0.042     2.421     2.433
    16   1 H        0.924     0.042     2.421     2.433
    17   1 H        0.924     0.037     2.492     2.468
    18   1 H        0.924     0.037     2.492     2.468
    19   1 H        0.924     0.030     2.586     2.515
    20   1 H        0.924     0.030     2.587     2.515
    21   1 H        0.925     0.034     2.527     2.486
    22   1 H        0.925     0.028     2.615     2.529
    23   1 H        0.925     0.034     2.527     2.486

Wiberg/Mayer (AO) data.
largest (>0.10) Wiberg bond orders for each atom

     #   Z sym  total        # sym  WBO       # sym  WBO       # sym  WBO
 ---------------------------------------------------------------------------
     1   7 N    3.653 --     2 C    0.966     9 H    0.890    10 H    0.890
                             8 H    0.887
     2   6 C    3.927 --     3 C    1.011    11 H    0.967    12 H    0.967
                             1 N    0.966
     3   6 C    3.990 --     2 C    1.011     4 C    1.004    13 H    0.973
                            14 H    0.973
     4   6 C    3.996 --     5 C    1.007     3 C    1.004    16 H    0.977
                            15 H    0.977
     5   6 C    3.996 --     6 C    1.008     4 C    1.007    17 H    0.977
                            18 H    0.977
     6   6 C    3.997 --     7 C    1.019     5 C    1.008    20 H    0.979
                            19 H    0.979
     7   6 C    3.996 --     6 C    1.019    23 H    0.988    21 H    0.988
                            22 H    0.988
     8   1 H    0.900 --     1 N    0.887
     9   1 H    0.905 --     1 N    0.890
    10   1 H    0.905 --     1 N    0.890
    11   1 H    0.989 --     2 C    0.967
    12   1 H    0.989 --     2 C    0.967
    13   1 H    0.996 --     3 C    0.973
    14   1 H    0.996 --     3 C    0.973
    15   1 H    0.998 --     4 C    0.977
    16   1 H    0.998 --     4 C    0.977
    17   1 H    0.999 --     5 C    0.977
    18   1 H    0.999 --     5 C    0.977
    19   1 H    0.999 --     6 C    0.979
    20   1 H    0.999 --     6 C    0.979
    21   1 H    0.999 --     7 C    0.988
    22   1 H    0.999 --     7 C    0.988
    23   1 H    0.999 --     7 C    0.988
 ---------------------------------------------------------------------------

molecular dipole:
                 x           y           z       tot (Debye)
 q only:        1.933       0.086      -0.139
   full:        1.924       0.042      -0.180       4.912

           -------------------------------------------------
          | TOTAL ENERGY              -23.608487249249 Eh   |
          | GRADIENT NORM               0.000447885378 Eh/α |
          | HOMO-LUMO GAP               9.976216997000 eV   |
           -------------------------------------------------

 * finished run on 2023/01/24 at 16:08:29.559
