   * xtb version 6.5.1 (fef0646) compiled by 'conda@b96dff2e9fd6' on 2023-01-04
          program call               : xtb init.xyz --opt -c 0 -u 0 -P 16

   ID    Z sym.   atoms
    1    7 N      1
    2    6 C      2, 3, 5-20
    3    8 O      4
    4   17 Cl     21
    5    1 H      22-37

          :  Hamiltonian                  GFN2-xTB          :
 * total energy  :   -58.2335457 Eh     change       -0.8791261E-09 Eh
 * total energy  :   -58.2448983 Eh     change       -0.1135259E-01 Eh
 * total energy  :   -58.2512673 Eh     change       -0.6368964E-02 Eh
 * total energy  :   -58.2543906 Eh     change       -0.3123307E-02 Eh
 * total energy  :   -58.2579316 Eh     change       -0.3541049E-02 Eh
 * total energy  :   -58.2601760 Eh     change       -0.2244387E-02 Eh
 * total energy  :   -58.2614077 Eh     change       -0.1231638E-02 Eh
 * total energy  :   -58.2620102 Eh     change       -0.6025154E-03 Eh
 * total energy  :   -58.2622037 Eh     change       -0.1934843E-03 Eh
 * total energy  :   -58.2622530 Eh     change       -0.4933345E-04 Eh
 * total energy  :   -58.2630141 Eh     change       -0.1259880E-04 Eh
 * total energy  :   -58.2630355 Eh     change       -0.2144496E-04 Eh
 * total energy  :   -58.2630677 Eh     change       -0.3221151E-04 Eh
 * total energy  :   -58.2630823 Eh     change       -0.1454992E-04 Eh
 * total energy  :   -58.2630939 Eh     change       -0.1162263E-04 Eh
 * total energy  :   -58.2631033 Eh     change       -0.9367944E-05 Eh
 * total energy  :   -58.2631107 Eh     change       -0.7461627E-05 Eh
 * total energy  :   -58.2631162 Eh     change       -0.5502300E-05 Eh
 * total energy  :   -58.2631201 Eh     change       -0.3908221E-05 Eh
   *** GEOMETRY OPTIMIZATION CONVERGED AFTER 35 ITERATIONS ***

 final structure:
================
37
 xtb: 6.5.1 (fef0646)
N            0.79615896222073       -0.72454786092216        1.66879995583121
C            1.99142175608911        0.09009996659228        1.86130530689103
C            3.22466006856262       -0.65794709372079        1.33481011734430
O            4.39701839057412        0.10460755483758        1.47805764760624
C            5.01148027218852        0.20539607039712        2.69298478193186
C            6.11873729329144        1.07963339166055        2.74249542394664
C            6.54035514128961        1.81929278261708        1.60023092493488
C            7.60342529452131        2.65511435041168        1.66034112862550
C            6.83108430342196        1.22855524439581        3.95441076495537
C            6.43768979712268        0.50768562083057        5.10934061270175
C            5.33960812643702       -0.34364185585986        5.01866308957749
C            4.63823836712805       -0.49119988841538        3.83625740209421
C            7.17775016212598        0.67853633845309        6.31539660798633
C            8.24227006777898        1.51113162416750        6.37195832393563
C            8.66386693352013        2.25136473701695        5.22737448439597
C            9.75880350752938        3.11530610417727        5.26396022548163
C           10.14110689900598        3.81954867484480        4.13628154759939
C            9.44563416527435        3.68082478341032        2.94995794038853
C            8.34411097411231        2.82652808573531        2.86556131542308
C            7.94482335391057        2.10158367385616        4.01515469835026
Cl           0.51686928844794       -1.60600663695253       -1.14208728620235
H           -0.03796996415880       -0.20892227850020        1.92554406342980
H            0.83783926314522       -1.57004238268428        2.22839885376624
H            0.64148677465272       -1.18287670045069        0.13870629163950
H            2.15308791272903        0.36511183624324        2.91356610244695
H            1.87218056261712        1.01122213142068        1.28706799295974
H            3.11418797045679       -0.82057369966558        0.26017176591600
H            3.31881945594397       -1.63638034955867        1.82189002502579
H            5.98336920502414        1.69026821200548        0.68551426790780
H            7.91456510470114        3.21278216416214        0.78835388212782
H            5.02887305184485       -0.90118347521015        5.89075377791318
H            3.79846489063069       -1.16902558814545        3.82154441100018
H            6.86461809112942        0.12101655367298        7.18709163752137
H            8.79933456632634        1.63419814118040        7.29006182823744
H           10.30905902512354        3.22991800962705        6.18703373675710
H           10.99187080842576        4.48415880363337        4.18387034128517
H            9.75090015685286        4.23467295473547        2.07368600826447

          :  Hamiltonian                  GFN2-xTB          :
         :: total energy             -58.263120142958 Eh    ::
         :: gradient norm              0.000327050364 Eh/a0 ::
         :: HOMO-LUMO gap              2.305508517289 eV    ::
         :: SCC energy               -59.172267640872 Eh    ::
         :: -> dispersion             -0.042528926808 Eh    ::
         :: repulsion energy           0.909261910774 Eh    ::

    * Orbital Energies and Occupations

         #    Occupation            Energy/Eh            Energy/eV
      -------------------------------------------------------------
         1        2.0000           -1.0266169             -27.9357
       ...           ...                  ...                  ...
        41        2.0000           -0.4527475             -12.3199
        42        2.0000           -0.4419215             -12.0253
        43        2.0000           -0.4356388             -11.8543
        44        2.0000           -0.4303189             -11.7096
        45        2.0000           -0.4131024             -11.2411
        46        2.0000           -0.4107377             -11.1767
        47        2.0000           -0.4075011             -11.0887
        48        2.0000           -0.4048166             -11.0156
        49        2.0000           -0.4044396             -11.0054
        50        2.0000           -0.4037346             -10.9862
        51        2.0000           -0.4036792             -10.9847
        52        2.0000           -0.3914040             -10.6506
        53        2.0000           -0.3585793              -9.7574 (HOMO)
        54                         -0.2738534              -7.4519 (LUMO)
        55                         -0.2418152              -6.5801
        56                         -0.2200067              -5.9867
        57                         -0.2001534              -5.4465
        58                         -0.1805377              -4.9127
        59                         -0.1246664              -3.3923
        60                         -0.0994566              -2.7064
        61                         -0.0690668              -1.8794
        62                         -0.0253884              -0.6909
        63                         -0.0149223              -0.4061
        64                          0.0428181               1.1651
       ...                                ...                  ...
       105                          0.7330130              19.9463
      -------------------------------------------------------------
                  HL-Gap            0.0847259 Eh            2.3055 eV

     #   Z          covCN         q      C6AA      α(0)
     1   7 N        2.662    -0.316    28.131     7.877
     2   6 C        3.729     0.000    20.671     6.491
     3   6 C        3.691     0.065    19.672     6.347
     4   8 O        1.705    -0.265    18.392     5.790
     5   6 C        2.858     0.134    25.060     8.205
     6   6 C        2.983    -0.009    28.233     8.716
     7   6 C        2.913    -0.031    28.784     8.798
     8   6 C        2.914    -0.038    28.935     8.821
     9   6 C        2.996     0.003    27.953     8.673
    10   6 C        2.981     0.002    27.981     8.677
    11   6 C        2.920    -0.040    28.998     8.831
    12   6 C        2.912    -0.069    29.731     8.941
    13   6 C        2.913    -0.036    28.888     8.814
    14   6 C        2.913    -0.038    28.948     8.823
    15   6 C        2.982     0.012    27.741     8.640
    16   6 C        2.920    -0.038    28.953     8.824
    17   6 C        2.914    -0.030    28.751     8.793
    18   6 C        2.920    -0.038    28.948     8.823
    19   6 C        2.982     0.013    27.726     8.637
    20   6 C        2.998     0.004    27.921     8.668
    21  17 Cl       0.840    -0.462   114.316    16.356
    22   1 H        0.860     0.172     1.258     1.757
    23   1 H        0.860     0.166     1.295     1.783
    24   1 H        0.871     0.332     0.626     1.239
    25   1 H        0.923     0.035     2.516     2.480
    26   1 H        0.924     0.063     2.162     2.299
    27   1 H        0.924     0.078     1.995     2.209
    28   1 H        0.924     0.039     2.464     2.455
    29   1 H        0.926     0.047     2.353     2.399
    30   1 H        0.926     0.033     2.544     2.494
    31   1 H        0.926     0.033     2.538     2.491
    32   1 H        0.926     0.028     2.613     2.528
    33   1 H        0.926     0.030     2.588     2.516
    34   1 H        0.926     0.031     2.577     2.511
    35   1 H        0.926     0.030     2.586     2.515
    36   1 H        0.926     0.030     2.592     2.518
    37   1 H        0.926     0.031     2.575     2.510

Wiberg/Mayer (AO) data.
largest (>0.10) Wiberg bond orders for each atom

     #   Z sym  total        # sym  WBO       # sym  WBO       # sym  WBO
 ---------------------------------------------------------------------------
     1   7 N    3.205 --     2 C    1.012    23 H    0.959    22 H    0.957
                            24 H    0.176
     2   6 C    3.972 --     1 N    1.012     3 C    0.989    26 H    0.974
                            25 H    0.969
     3   6 C    3.947 --     2 C    0.989     4 O    0.981    27 H    0.965
                            28 H    0.963
     4   8 O    2.231 --     5 C    1.059     3 C    0.981
     5   6 C    3.900 --    12 C    1.377     6 C    1.273     4 O    1.059
     6   6 C    3.986 --     5 C    1.273     9 C    1.269     7 C    1.212
     7   6 C    3.991 --     8 C    1.646     6 C    1.212    29 H    0.966
     8   6 C    3.990 --     7 C    1.646    19 C    1.204    30 H    0.968
     9   6 C    3.990 --     6 C    1.269    20 C    1.250    10 C    1.243
    10   6 C    3.989 --    11 C    1.359     9 C    1.243    13 C    1.201
    11   6 C    3.956 --    12 C    1.442    10 C    1.359    31 H    0.969
    12   6 C    3.979 --    11 C    1.442     5 C    1.377    32 H    0.963
    13   6 C    3.991 --    14 C    1.655    10 C    1.201    33 H    0.968
    14   6 C    3.983 --    13 C    1.655    15 C    1.197    34 H    0.968
    15   6 C    3.990 --    16 C    1.360    20 C    1.253    14 C    1.197
    16   6 C    3.953 --    17 C    1.439    15 C    1.360    35 H    0.969
    17   6 C    3.986 --    18 C    1.447    16 C    1.439    36 H    0.971
    18   6 C    3.954 --    17 C    1.447    19 C    1.352    37 H    0.969
    19   6 C    3.990 --    18 C    1.352    20 C    1.255     8 C    1.204
    20   6 C    3.990 --    19 C    1.255    15 C    1.253     9 C    1.250
    21  17 Cl   0.789 --    24 H    0.710
    22   1 H    0.970 --     1 N    0.957
    23   1 H    0.972 --     1 N    0.959
    24   1 H    0.890 --    21 Cl   0.710     1 N    0.176
    25   1 H    0.999 --     2 C    0.969
    26   1 H    0.996 --     2 C    0.974
    27   1 H    0.993 --     3 C    0.965
    28   1 H    0.998 --     3 C    0.963
    29   1 H    0.997 --     7 C    0.966
    30   1 H    0.998 --     8 C    0.968
    31   1 H    0.998 --    11 C    0.969
    32   1 H    0.998 --    12 C    0.963
    33   1 H    0.998 --    13 C    0.968
    34   1 H    0.998 --    14 C    0.968
    35   1 H    0.998 --    16 C    0.969
    36   1 H    0.998 --    17 C    0.971
    37   1 H    0.998 --    18 C    0.969
 ---------------------------------------------------------------------------

molecular dipole:
                 x           y           z       tot (Debye)
 q only:       -0.100       0.425       1.658
   full:       -0.350       0.206       1.672       4.373

           -------------------------------------------------
          | TOTAL ENERGY              -58.263120142958 Eh   |
          | GRADIENT NORM               0.000327050364 Eh/α |
          | HOMO-LUMO GAP               2.305508517289 eV   |
           -------------------------------------------------

 * finished run on 2023/01/23 at 14:23:10.084
