   * xtb version 6.5.1 (fef0646) compiled by 'conda@b96dff2e9fd6' on 2023-01-04
          program call               : xtb init.xyz --opt -c 0 -u 0 -P 16 --alpb water

   ID    Z sym.   atoms
    1    7 N      1
    2    6 C      2-7, 9, 10
    3   35 Br     8
    4   17 Cl     11
    5    1 H      12-22

      * Solvation model:               ALPB
        Solvent                        water
        Solvent mass                       1.8000E+01 g/mol
          :  Hamiltonian                  GFN2-xTB          :
 * total energy  :   -34.3163234 Eh     change       -0.4390444E-09 Eh
 * total energy  :   -34.3215135 Eh     change       -0.5190083E-02 Eh
 * total energy  :   -34.3225199 Eh     change       -0.1006377E-02 Eh
 * total energy  :   -34.3226944 Eh     change       -0.1745475E-03 Eh
 * total energy  :   -34.3227595 Eh     change       -0.6509537E-04 Eh
 * total energy  :   -34.3228330 Eh     change       -0.7345750E-04 Eh
 * total energy  :   -34.3231134 Eh     change       -0.2804676E-03 Eh
 * total energy  :   -34.3234213 Eh     change       -0.3078497E-03 Eh
 * total energy  :   -34.3238619 Eh     change       -0.4406371E-03 Eh
 * total energy  :   -34.3252227 Eh     change       -0.1360753E-02 Eh
 * total energy  :   -34.3291383 Eh     change       -0.3010212E-04 Eh
 * total energy  :   -34.3291908 Eh     change       -0.5249105E-04 Eh
 * total energy  :   -34.3292403 Eh     change       -0.4951181E-04 Eh
 * total energy  :   -34.3292634 Eh     change       -0.2315622E-04 Eh
 * total energy  :   -34.3292938 Eh     change       -0.3038019E-04 Eh
 * total energy  :   -34.3293282 Eh     change       -0.3442695E-04 Eh
 * total energy  :   -34.3293431 Eh     change       -0.1488162E-04 Eh
 * total energy  :   -34.3293514 Eh     change       -0.8279305E-05 Eh
 * total energy  :   -34.3293551 Eh     change       -0.3743024E-05 Eh
   *** GEOMETRY OPTIMIZATION CONVERGED AFTER 37 ITERATIONS ***

 final structure:
================
22
 xtb: 6.5.1 (fef0646)
N            1.08523446366819       -0.25234506406608       -0.32912292232235
C            2.54978364920816       -0.42813277079199       -0.29125766786192
C            3.00809428392355       -0.60779271732596        1.15754721385855
C            4.49876152763834       -0.46473127580407        1.26403878315376
C            5.07258026996104        0.80217350575596        1.26215766913350
C            6.44373251907289        0.96330773055426        1.33864211496698
C            7.24366549144726       -0.16281542885037        1.41590462730629
Br           9.15799158801454        0.04799578140603        1.52743680764975
C            6.70270338854396       -1.43498389475973        1.41770362679385
C            5.32778494562405       -1.57666536470659        1.33899621750365
Cl           0.45159263829466        2.14412577992748        1.46307362207233
H            0.75200163038482       -0.07296560344799       -1.27890103950266
H            0.82282039509894        0.57515159442517        0.26772198915977
H            0.60738970793339       -1.06977146983063        0.05808077130299
H            3.01734828314664        0.46566858745613       -0.70335459980902
H            2.83666542940890       -1.29191324116031       -0.89170153738741
H            2.70387984719609       -1.58328741151065        1.53414241578344
H            2.52789981816776        0.16795235177992        1.75721121159700
H            4.43833985957377        1.67474597976481        1.21402354474674
H            6.88507901447294        1.94774388282495        1.34191153946198
H            7.34533117841555       -2.29879646226199        1.48168557998545
H            4.90375007081183       -2.56839448935935        1.34556003241427

          :  Hamiltonian                  GFN2-xTB          :
         :: total energy             -34.329355145279 Eh    ::
         :: gradient norm              0.000564036452 Eh/a0 ::
         :: HOMO-LUMO gap              4.222197297427 eV    ::
         :: SCC energy               -34.769206776410 Eh    ::
         :: -> dispersion             -0.018916191097 Eh    ::
         :: -> Gsolv                  -0.078893747410 Eh    ::
         :: repulsion energy           0.439868942206 Eh    ::

    * Orbital Energies and Occupations

         #    Occupation            Energy/Eh            Energy/eV
      -------------------------------------------------------------
         1        2.0000           -1.0075297             -27.4163
       ...           ...                  ...                  ...
        19        2.0000           -0.4860933             -13.2273
        20        2.0000           -0.4797208             -13.0539
        21        2.0000           -0.4718823             -12.8406
        22        2.0000           -0.4465311             -12.1507
        23        2.0000           -0.4401405             -11.9768
        24        2.0000           -0.4333517             -11.7921
        25        2.0000           -0.4303232             -11.7097
        26        2.0000           -0.4184980             -11.3879
        27        2.0000           -0.4126814             -11.2296
        28        2.0000           -0.4036924             -10.9850
        29        2.0000           -0.4010810             -10.9140
        30        2.0000           -0.4009826             -10.9113
        31        2.0000           -0.3955078             -10.7623 (HOMO)
        32                         -0.2403449              -6.5401 (LUMO)
        33                         -0.2372580              -6.4561
        34                         -0.2065235              -5.6198
        35                         -0.1139655              -3.1012
        36                         -0.0266140              -0.7242
        37                          0.0363565               0.9893
        38                          0.0372955               1.0149
        39                          0.0389919               1.0610
        40                          0.0747730               2.0347
        41                          0.0763884               2.0786
        42                          0.0986012               2.6831
       ...                                ...                  ...
        65                          0.6424900              17.4830
      -------------------------------------------------------------
                  HL-Gap            0.1551629 Eh            4.2222 eV

     #   Z          covCN         q      C6AA      α(0)
     1   7 N        3.484    -0.171    24.693     7.380
     2   6 C        3.734    -0.022    21.064     6.550
     3   6 C        3.810    -0.090    22.215     6.709
     4   6 C        2.970     0.023    27.491     8.600
     5   6 C        2.929    -0.038    28.939     8.822
     6   6 C        2.979    -0.039    28.962     8.828
     7   6 C        2.919     0.085    26.102     8.378
     8  35 Br       1.045    -0.236   191.639    22.321
     9   6 C        2.979    -0.041    29.009     8.835
    10   6 C        2.928    -0.042    29.046     8.838
    11  17 Cl       0.048    -0.946   124.842    17.005
    12   1 H        0.859     0.306     0.696     1.307
    13   1 H        0.905     0.297     0.717     1.325
    14   1 H        0.859     0.301     0.710     1.320
    15   1 H        0.925     0.098     1.806     2.102
    16   1 H        0.924     0.109     1.702     2.040
    17   1 H        0.925     0.079     1.990     2.206
    18   1 H        0.924     0.082     1.957     2.187
    19   1 H        0.926     0.059     2.210     2.325
    20   1 H        0.926     0.051     2.302     2.373
    21   1 H        0.926     0.061     2.189     2.314
    22   1 H        0.926     0.074     2.038     2.232

Wiberg/Mayer (AO) data.
largest (>0.10) Wiberg bond orders for each atom

     #   Z sym  total        # sym  WBO       # sym  WBO       # sym  WBO
 ---------------------------------------------------------------------------
     1   7 N    3.642 --     2 C    0.972    14 H    0.895    12 H    0.892
                            13 H    0.830
     2   6 C    3.932 --     3 C    0.991     1 N    0.972    15 H    0.968
                            16 H    0.967
     3   6 C    3.988 --     4 C    1.012     2 C    0.991    17 H    0.970
                            18 H    0.959
     4   6 C    3.989 --    10 C    1.413     5 C    1.403     3 C    1.012
     5   6 C    3.989 --     6 C    1.446     4 C    1.403    19 H    0.965
                             9 C    0.109
     6   6 C    3.990 --     5 C    1.446     7 C    1.409    20 H    0.968
                            10 C    0.107
     7   6 C    3.916 --     9 C    1.415     6 C    1.409     8 Br   0.949
     8  35 Br   1.077 --     7 C    0.949
     9   6 C    3.988 --    10 C    1.436     7 C    1.415    21 H    0.967
                             5 C    0.109
    10   6 C    3.987 --     9 C    1.436     4 C    1.413    22 H    0.963
                             6 C    0.107
    11  17 Cl   0.104
    12   1 H    0.906 --     1 N    0.892
    13   1 H    0.912 --     1 N    0.830
    14   1 H    0.909 --     1 N    0.895
    15   1 H    0.990 --     2 C    0.968
    16   1 H    0.988 --     2 C    0.967
    17   1 H    0.993 --     3 C    0.970
    18   1 H    0.993 --     3 C    0.959
    19   1 H    0.997 --     5 C    0.965
    20   1 H    0.997 --     6 C    0.968
    21   1 H    0.996 --     9 C    0.967
    22   1 H    0.994 --    10 C    0.963
 ---------------------------------------------------------------------------

molecular dipole:
                 x           y           z       tot (Debye)
 q only:       -0.405      -4.558      -3.241
   full:       -0.884      -3.864      -2.809      12.349

           -------------------------------------------------
          | TOTAL ENERGY              -34.329355145279 Eh   |
          | GRADIENT NORM               0.000564036452 Eh/α |
          | HOMO-LUMO GAP               4.222197297427 eV   |
           -------------------------------------------------

 * finished run on 2023/01/24 at 15:33:24.580
