   * xtb version 6.5.1 (fef0646) compiled by 'conda@b96dff2e9fd6' on 2023-01-04
          program call               : xtb init.xyz --opt -c 0 -u 0 -P 16 --alpb water

   ID    Z sym.   atoms
    1    7 N      1
    2    6 C      2, 3, 5-20
    3    8 O      4
    4   17 Cl     21
    5    1 H      22-37

      * Solvation model:               ALPB
        Solvent                        water
        Solvent mass                       1.8000E+01 g/mol
          :  Hamiltonian                  GFN2-xTB          :
 * total energy  :   -58.2940732 Eh     change       -0.1542666E-08 Eh
 * total energy  :   -58.3029062 Eh     change       -0.8833058E-02 Eh
 * total energy  :   -58.3049421 Eh     change       -0.2035927E-02 Eh
 * total energy  :   -58.3053698 Eh     change       -0.4276799E-03 Eh
 * total energy  :   -58.3056011 Eh     change       -0.2312788E-03 Eh
 * total energy  :   -58.3057327 Eh     change       -0.1315749E-03 Eh
 * total energy  :   -58.3058759 Eh     change       -0.1432575E-03 Eh
 * total energy  :   -58.3060503 Eh     change       -0.1743312E-03 Eh
 * total energy  :   -58.3062204 Eh     change       -0.1701335E-03 Eh
 * total energy  :   -58.3063710 Eh     change       -0.1506474E-03 Eh
 * total energy  :   -58.3069546 Eh     change       -0.4026460E-04 Eh
 * total energy  :   -58.3069784 Eh     change       -0.2378939E-04 Eh
 * total energy  :   -58.3070041 Eh     change       -0.2568213E-04 Eh
 * total energy  :   -58.3070158 Eh     change       -0.1173852E-04 Eh
 * total energy  :   -58.3070269 Eh     change       -0.1107852E-04 Eh
 * total energy  :   -58.3070344 Eh     change       -0.7455915E-05 Eh
 * total energy  :   -58.3070408 Eh     change       -0.6408334E-05 Eh
 * total energy  :   -58.3070470 Eh     change       -0.6268309E-05 Eh
 * total energy  :   -58.3070519 Eh     change       -0.4870260E-05 Eh
   *** GEOMETRY OPTIMIZATION CONVERGED AFTER 29 ITERATIONS ***

 final structure:
================
37
 xtb: 6.5.1 (fef0646)
N            0.87561093520146       -1.47241756740755        1.16569641532052
C            2.11677435167432       -1.02219308169116        1.81872066767219
C            3.32724588601003       -1.37783236981857        0.94442021822679
O            4.50642724812714       -0.74908157136121        1.40514735597847
C            5.19476696925426       -1.26732103111391        2.46262609128200
C            6.33327376586872       -0.53450363267907        2.86265472322667
C            6.71627126811383        0.67045208954804        2.20623153015041
C            7.81256484636720        1.36283475045153        2.59563942912530
C            7.11827205478185       -1.00562921385141        3.93983680512968
C            6.76437522940797       -2.20108095445214        4.61360936840438
C            5.63318908173188       -2.89361398577406        4.18798702905392
C            4.86155056736317       -2.43725502545328        3.13572775148848
C            7.57727281451939       -2.65011569825341        5.69475167661583
C            8.67425936848974       -1.95876603192395        6.08096395728559
C            9.05835109139035       -0.75280746979494        5.42198336153905
C           10.18691499961566       -0.02549181270882        5.80232580933349
C           10.53219829284018        1.14000615048353        5.14155933070421
C            9.76508120464661        1.60810830420528        4.09114222642591
C            8.62698608637404        0.91340021865779        3.67536448621113
C            8.26595112973624       -0.28147785457726        4.34527069097163
Cl           0.83631468666128       -0.42594315911628       -1.68779093414041
H            0.04986034500706       -1.14914523974840        1.67539045519231
H            0.84777999130084       -2.49154566175230        1.07876028498645
H            0.82364152238772       -1.08201562794472        0.18602393595265
H            2.20692851098838       -1.47380549884975        2.80815607714920
H            2.09509843179916        0.06271074611669        1.92552517805163
H            3.16316302100581       -0.97140144934185       -0.05787463494508
H            3.46904550598219       -2.46008575777582        0.86359110445374
H            6.10429427635663        1.01286518002896        1.38601840202619
H            8.09456195491993        2.27587992885715        2.09108950140103
H            5.35469720953179       -3.80674805564279        4.69246983385142
H            4.00415014556581       -3.01971784022223        2.84282698609363
H            7.29461383790249       -3.56269559049225        6.19944643169397
H            9.28723097085148       -2.30607571803396        6.90021612147683
H           10.79292360477782       -0.38324757243218        6.62212099019231
H           11.41002660789691        1.68922223181728        5.44944527183863
H           10.04166218554449        2.51891487203519        3.57996607058506

          :  Hamiltonian                  GFN2-xTB          :
         :: total energy             -58.307051903021 Eh    ::
         :: gradient norm              0.000270370915 Eh/a0 ::
         :: HOMO-LUMO gap              2.298323832094 eV    ::
         :: SCC energy               -59.223216351901 Eh    ::
         :: -> dispersion             -0.041800439995 Eh    ::
         :: -> Gsolv                  -0.079050049491 Eh    ::
         :: repulsion energy           0.916276481564 Eh    ::

    * Orbital Energies and Occupations

         #    Occupation            Energy/Eh            Energy/eV
      -------------------------------------------------------------
         1        2.0000           -1.0083794             -27.4394
       ...           ...                  ...                  ...
        41        2.0000           -0.4456984             -12.1281
        42        2.0000           -0.4373397             -11.9006
        43        2.0000           -0.4296701             -11.6919
        44        2.0000           -0.4250519             -11.5662
        45        2.0000           -0.4064668             -11.0605
        46        2.0000           -0.4059087             -11.0453
        47        2.0000           -0.4037383             -10.9863
        48        2.0000           -0.4017749             -10.9329
        49        2.0000           -0.4016468             -10.9294
        50        2.0000           -0.4007780             -10.9057
        51        2.0000           -0.4003251             -10.8934
        52        2.0000           -0.3871944             -10.5361
        53        2.0000           -0.3541616              -9.6372 (HOMO)
        54                         -0.2696998              -7.3389 (LUMO)
        55                         -0.2375993              -6.4654
        56                         -0.2164608              -5.8902
        57                         -0.1961388              -5.3372
        58                         -0.1761021              -4.7920
        59                         -0.1210616              -3.2943
        60                         -0.0952666              -2.5923
        61                         -0.0467330              -1.2717
        62                         -0.0216362              -0.5887
        63                          0.0350706               0.9543
        64                          0.0768497               2.0912
       ...                                ...                  ...
       105                          0.7364703              20.0404
      -------------------------------------------------------------
                  HL-Gap            0.0844618 Eh            2.2983 eV

     #   Z          covCN         q      C6AA      α(0)
     1   7 N        3.483    -0.174    24.748     7.389
     2   6 C        3.729    -0.032    21.242     6.579
     3   6 C        3.689     0.056    19.815     6.371
     4   8 O        1.705    -0.285    18.737     5.844
     5   6 C        2.858     0.135    25.052     8.204
     6   6 C        2.982    -0.013    28.337     8.732
     7   6 C        2.913    -0.036    28.902     8.816
     8   6 C        2.914    -0.043    29.078     8.842
     9   6 C        2.996     0.000    28.011     8.682
    10   6 C        2.981    -0.001    28.047     8.687
    11   6 C        2.920    -0.044    29.102     8.847
    12   6 C        2.912    -0.076    29.888     8.965
    13   6 C        2.913    -0.041    29.017     8.833
    14   6 C        2.913    -0.044    29.099     8.846
    15   6 C        2.982     0.008    27.825     8.653
    16   6 C        2.920    -0.045    29.107     8.847
    17   6 C        2.913    -0.036    28.901     8.816
    18   6 C        2.920    -0.044    29.101     8.846
    19   6 C        2.982     0.009    27.817     8.652
    20   6 C        2.998     0.001    27.990     8.679
    21  17 Cl       0.062    -0.942   124.697    16.995
    22   1 H        0.859     0.315     0.671     1.283
    23   1 H        0.859     0.302     0.707     1.317
    24   1 H        0.919     0.300     0.710     1.318
    25   1 H        0.924     0.112     1.681     2.027
    26   1 H        0.924     0.112     1.678     2.026
    27   1 H        0.924     0.085     1.929     2.172
    28   1 H        0.924     0.066     2.132     2.283
    29   1 H        0.926     0.045     2.385     2.415
    30   1 H        0.926     0.032     2.557     2.500
    31   1 H        0.926     0.049     2.326     2.385
    32   1 H        0.926     0.061     2.187     2.313
    33   1 H        0.926     0.039     2.461     2.453
    34   1 H        0.926     0.034     2.536     2.490
    35   1 H        0.926     0.033     2.542     2.493
    36   1 H        0.926     0.032     2.554     2.499
    37   1 H        0.926     0.031     2.567     2.505

Wiberg/Mayer (AO) data.
largest (>0.10) Wiberg bond orders for each atom

     #   Z sym  total        # sym  WBO       # sym  WBO       # sym  WBO
 ---------------------------------------------------------------------------
     1   7 N    3.638 --     2 C    0.981    23 H    0.894    22 H    0.887
                            24 H    0.823
     2   6 C    3.930 --     3 C    0.992     1 N    0.981    26 H    0.966
                            25 H    0.964
     3   6 C    3.932 --     2 C    0.992     4 O    0.968    27 H    0.963
                            28 H    0.962
     4   8 O    2.221 --     5 C    1.062     3 C    0.968
     5   6 C    3.901 --    12 C    1.374     6 C    1.273     4 O    1.062
     6   6 C    3.987 --     5 C    1.273     9 C    1.269     7 C    1.213
     7   6 C    3.991 --     8 C    1.645     6 C    1.213    29 H    0.966
     8   6 C    3.990 --     7 C    1.645    19 C    1.205    30 H    0.968
     9   6 C    3.990 --     6 C    1.269    20 C    1.250    10 C    1.243
    10   6 C    3.989 --    11 C    1.357     9 C    1.243    13 C    1.202
    11   6 C    3.955 --    12 C    1.446    10 C    1.357    31 H    0.968
    12   6 C    3.977 --    11 C    1.446     5 C    1.374    32 H    0.960
    13   6 C    3.990 --    14 C    1.654    10 C    1.202    33 H    0.967
    14   6 C    3.982 --    13 C    1.654    15 C    1.198    34 H    0.968
    15   6 C    3.990 --    16 C    1.359    20 C    1.253    14 C    1.198
    16   6 C    3.953 --    17 C    1.439    15 C    1.359    35 H    0.969
    17   6 C    3.985 --    18 C    1.447    16 C    1.439    36 H    0.970
    18   6 C    3.954 --    17 C    1.447    19 C    1.352    37 H    0.969
    19   6 C    3.990 --    18 C    1.352    20 C    1.255     8 C    1.205
    20   6 C    3.990 --    19 C    1.255    15 C    1.253     9 C    1.250
    21  17 Cl   0.112
    22   1 H    0.901 --     1 N    0.887
    23   1 H    0.909 --     1 N    0.894
    24   1 H    0.910 --     1 N    0.823
    25   1 H    0.987 --     2 C    0.964
    26   1 H    0.987 --     2 C    0.966
    27   1 H    0.992 --     3 C    0.963
    28   1 H    0.995 --     3 C    0.962
    29   1 H    0.997 --     7 C    0.966
    30   1 H    0.998 --     8 C    0.968
    31   1 H    0.997 --    11 C    0.968
    32   1 H    0.995 --    12 C    0.960
    33   1 H    0.997 --    13 C    0.967
    34   1 H    0.998 --    14 C    0.968
    35   1 H    0.998 --    16 C    0.969
    36   1 H    0.998 --    17 C    0.970
    37   1 H    0.998 --    18 C    0.969
 ---------------------------------------------------------------------------

molecular dipole:
                 x           y           z       tot (Debye)
 q only:       -0.602      -2.290       4.949
   full:       -0.708      -2.110       4.187      12.053

           -------------------------------------------------
          | TOTAL ENERGY              -58.307051903021 Eh   |
          | GRADIENT NORM               0.000270370915 Eh/α |
          | HOMO-LUMO GAP               2.298323832094 eV   |
           -------------------------------------------------

 * finished run on 2023/01/24 at 14:58:05.975
