   * xtb version 6.5.1 (fef0646) compiled by 'conda@b96dff2e9fd6' on 2023-01-04
          program call               : xtb init.xyz --opt -c 0 -u 0 -P 16 --input xtb.inp

   ID    Z sym.   atoms
    1    7 N      1
    2    6 C      2-7
    3   17 Cl     8
    4    1 H      9-24

          :  Hamiltonian                  GFN2-xTB          :
 * total energy  :   -28.4562366 Eh     change       -0.1918892E-08 Eh
 * total energy  :   -28.4608234 Eh     change       -0.4586852E-02 Eh
 * total energy  :   -28.4672530 Eh     change       -0.6429576E-02 Eh
 * total energy  :   -28.4724052 Eh     change       -0.5152184E-02 Eh
 * total energy  :   -28.4755430 Eh     change       -0.3137805E-02 Eh
 * total energy  :   -28.4775924 Eh     change       -0.2049389E-02 Eh
 * total energy  :   -28.4786472 Eh     change       -0.1054791E-02 Eh
 * total energy  :   -28.4795441 Eh     change       -0.8968764E-03 Eh
 * total energy  :   -28.4799144 Eh     change       -0.3703698E-03 Eh
 * total energy  :   -28.4800188 Eh     change       -0.1044164E-03 Eh
 * total energy  :   -28.4809228 Eh     change       -0.1341426E-04 Eh
 * total energy  :   -28.4809328 Eh     change       -0.1001607E-04 Eh
 * total energy  :   -28.4809453 Eh     change       -0.1248518E-04 Eh
 * total energy  :   -28.4809555 Eh     change       -0.1019828E-04 Eh
 * total energy  :   -28.4809683 Eh     change       -0.1282062E-04 Eh
 * total energy  :   -28.4809790 Eh     change       -0.1067443E-04 Eh
 * total energy  :   -28.4809883 Eh     change       -0.9254908E-05 Eh
 * total energy  :   -28.4809959 Eh     change       -0.7603717E-05 Eh
 * total energy  :   -28.4810003 Eh     change       -0.4447990E-05 Eh
   *** GEOMETRY OPTIMIZATION CONVERGED AFTER 31 ITERATIONS ***

 final structure:
================
24
 xtb: 6.5.1 (fef0646)
N            1.20688117199163       -0.39794474362280        0.18519828232134
C            2.66169105893785       -0.29658186473606        0.07291229151133
C            3.13656370133977        1.04295758533372        0.62661176926854
C            4.64598694540664        1.21508822408301        0.47913673243083
C            5.11954597891593        2.55950141376793        1.02587282762450
C            6.62596787410464        2.74760144056358        0.86420953654785
C            7.09160994354231        4.08991364516872        1.41436087928728
Cl          -0.09513758949482        1.77026520233171       -1.29773347985543
H            0.86809073175740       -1.27706805343723       -0.18933292171219
H            0.52792589538128        0.76078132632667       -0.60618022856618
H            0.91627642672344       -0.32124665291888        1.15453382712303
H            2.91389459357428       -0.36587184384624       -0.98771183571739
H            3.17288467004462       -1.11598142724914        0.59912380106949
H            2.86441083582551        1.11347213404494        1.68250561627576
H            2.62050953325869        1.84239076045794        0.09466016588290
H            4.91522345126321        1.14031168025530       -0.57659783233954
H            5.15931738737657        0.40824487352752        1.00866624765164
H            4.85932340132069        2.63201652214201        2.08449543880799
H            4.59776830348672        3.36312284222467        0.50217033341364
H            6.88519406800286        2.68017097274235       -0.19462257800513
H            7.14867588005033        1.94131770763123        1.38410824193837
H            6.59312064293126        4.90656661468830        0.89730776401367
H            8.16502479803382        4.20615019716801        1.28512612592874
H            6.86320029622473        4.16766144335360        2.47496899509990

          :  Hamiltonian                  GFN2-xTB          :
         :: total energy             -28.481000330562 Eh    ::
         :: gradient norm              0.000319411421 Eh/a0 ::
         :: HOMO-LUMO gap              9.167308941285 eV    ::
         :: SCC energy               -28.816317856100 Eh    ::
         :: -> dispersion             -0.014174823348 Eh    ::
         :: repulsion energy           0.335351156510 Eh    ::

    * Orbital Energies and Occupations

         #    Occupation            Energy/Eh            Energy/eV
      -------------------------------------------------------------
         1        2.0000           -1.0158115             -27.6416
       ...           ...                  ...                  ...
        14        2.0000           -0.4957399             -13.4898
        15        2.0000           -0.4854455             -13.2096
        16        2.0000           -0.4787081             -13.0263
        17        2.0000           -0.4713786             -12.8269
        18        2.0000           -0.4554685             -12.3939
        19        2.0000           -0.4537939             -12.3484
        20        2.0000           -0.4375788             -11.9071
        21        2.0000           -0.4347990             -11.8315
        22        2.0000           -0.4312158             -11.7340
        23        2.0000           -0.4239943             -11.5375
        24        2.0000           -0.3982799             -10.8377
        25        2.0000           -0.3929561             -10.6929
        26        2.0000           -0.3929222             -10.6920 (HOMO)
        27                         -0.0560298              -1.5246 (LUMO)
        28                          0.0099305               0.2702
        29                          0.0628890               1.7113
        30                          0.0682422               1.8570
        31                          0.0686808               1.8689
        32                          0.0742420               2.0202
        33                          0.0744362               2.0255
        34                          0.0939457               2.5564
        35                          0.1056912               2.8760
        36                          0.1082457               2.9455
        37                          0.1209493               3.2912
       ...                                ...                  ...
        53                          0.3127155               8.5094
      -------------------------------------------------------------
                  HL-Gap            0.3368924 Eh            9.1673 eV

     #   Z          covCN         q      C6AA      α(0)
     1   7 N        2.696    -0.306    27.861     7.839
     2   6 C        3.732     0.008    20.541     6.469
     3   6 C        3.804    -0.074    21.903     6.663
     4   6 C        3.803    -0.060    21.650     6.624
     5   6 C        3.803    -0.061    21.669     6.627
     6   6 C        3.801    -0.054    21.535     6.607
     7   6 C        3.752    -0.103    22.533     6.769
     8  17 Cl       0.837    -0.486   115.187    16.419
     9   1 H        0.860     0.166     1.299     1.785
    10   1 H        0.902     0.332     0.623     1.235
    11   1 H        0.860     0.167     1.290     1.779
    12   1 H        0.924     0.052     2.300     2.372
    13   1 H        0.923     0.024     2.680     2.560
    14   1 H        0.924     0.037     2.484     2.465
    15   1 H        0.925     0.062     2.176     2.307
    16   1 H        0.924     0.035     2.519     2.482
    17   1 H        0.924     0.030     2.591     2.517
    18   1 H        0.924     0.032     2.556     2.500
    19   1 H        0.924     0.037     2.488     2.467
    20   1 H        0.924     0.030     2.580     2.512
    21   1 H        0.924     0.029     2.607     2.525
    22   1 H        0.925     0.036     2.508     2.476
    23   1 H        0.925     0.034     2.529     2.487
    24   1 H        0.925     0.034     2.531     2.488

Wiberg/Mayer (AO) data.
largest (>0.10) Wiberg bond orders for each atom

     #   Z sym  total        # sym  WBO       # sym  WBO       # sym  WBO
 ---------------------------------------------------------------------------
     1   7 N    3.240 --     2 C    1.004     9 H    0.959    11 H    0.958
                            10 H    0.207
     2   6 C    3.973 --     3 C    1.006     1 N    1.004    12 H    0.974
                            13 H    0.973
     3   6 C    3.993 --     4 C    1.006     2 C    1.006    14 H    0.976
                            15 H    0.973
     4   6 C    3.997 --     5 C    1.007     3 C    1.006    17 H    0.977
                            16 H    0.977
     5   6 C    3.996 --     6 C    1.008     4 C    1.007    18 H    0.977
                            19 H    0.977
     6   6 C    3.998 --     7 C    1.019     5 C    1.008    21 H    0.979
                            20 H    0.979
     7   6 C    3.997 --     6 C    1.019    24 H    0.988    22 H    0.988
                            23 H    0.987
     8  17 Cl   0.766 --    10 H    0.678
     9   1 H    0.972 --     1 N    0.959
    10   1 H    0.890 --     8 Cl   0.678     1 N    0.207
    11   1 H    0.972 --     1 N    0.958
    12   1 H    0.997 --     2 C    0.974
    13   1 H    0.999 --     2 C    0.973
    14   1 H    0.999 --     3 C    0.976
    15   1 H    0.996 --     3 C    0.973
    16   1 H    0.999 --     4 C    0.977
    17   1 H    0.999 --     4 C    0.977
    18   1 H    0.999 --     5 C    0.977
    19   1 H    0.999 --     5 C    0.977
    20   1 H    0.999 --     6 C    0.979
    21   1 H    0.999 --     6 C    0.979
    22   1 H    0.999 --     7 C    0.988
    23   1 H    0.998 --     7 C    0.987
    24   1 H    0.999 --     7 C    0.988
 ---------------------------------------------------------------------------

molecular dipole:
                 x           y           z       tot (Debye)
 q only:        1.074      -1.249       0.996
   full:        0.889      -1.288       0.971       4.681

           -------------------------------------------------
          | TOTAL ENERGY              -28.481000330562 Eh   |
          | GRADIENT NORM               0.000319411421 Eh/α |
          | HOMO-LUMO GAP               9.167308941285 eV   |
           -------------------------------------------------

 * finished run on 2023/01/23 at 20:10:01.241
