   * xtb version 6.5.1 (fef0646) compiled by 'conda@b96dff2e9fd6' on 2023-01-04
          program call               : xtb init.xyz --opt -c 1 -u 0 -P 16 --input xtb.inp

   ID    Z sym.   atoms
    1    7 N      1
    2    6 C      2, 3, 5-24
    3    8 O      4
    4    1 H      25-42

          :  Hamiltonian                  GFN2-xTB          :
 * total energy  :   -62.8592561 Eh     change       -0.1894968E-08 Eh
 * total energy  :   -62.8661509 Eh     change       -0.6894854E-02 Eh
 * total energy  :   -62.8684991 Eh     change       -0.2348138E-02 Eh
 * total energy  :   -62.8693476 Eh     change       -0.8484925E-03 Eh
 * total energy  :   -62.8704983 Eh     change       -0.1150710E-02 Eh
 * total energy  :   -62.8715065 Eh     change       -0.1008279E-02 Eh
 * total energy  :   -62.8724137 Eh     change       -0.9072018E-03 Eh
 * total energy  :   -62.8732242 Eh     change       -0.8104344E-03 Eh
 * total energy  :   -62.8738385 Eh     change       -0.6142685E-03 Eh
 * total energy  :   -62.8742597 Eh     change       -0.4212713E-03 Eh
 * total energy  :   -62.8752223 Eh     change       -0.3945499E-04 Eh
 * total energy  :   -62.8752520 Eh     change       -0.2963644E-04 Eh
 * total energy  :   -62.8752947 Eh     change       -0.4270701E-04 Eh
 * total energy  :   -62.8753083 Eh     change       -0.1359398E-04 Eh
 * total energy  :   -62.8753269 Eh     change       -0.1863629E-04 Eh
 * total energy  :   -62.8753352 Eh     change       -0.8262640E-05 Eh
 * total energy  :   -62.8753436 Eh     change       -0.8426650E-05 Eh
 * total energy  :   -62.8753503 Eh     change       -0.6666358E-05 Eh
 * total energy  :   -62.8753548 Eh     change       -0.4543718E-05 Eh
   *** GEOMETRY OPTIMIZATION CONVERGED AFTER 39 ITERATIONS ***

 final structure:
================
42
 xtb: 6.5.1 (fef0646)
N            2.61862704536624        0.72130996485073        0.74240456895996
C            2.57080222171052       -0.33506516743484       -0.30433273209083
C            3.42486944618586       -1.49056944818581        0.23769706982404
O            4.55020864540898       -0.85323292512791        0.80412608594036
C            5.34645925190932       -1.56237978835805        1.71301800386341
C            5.31579055211582       -2.92230176858376        1.84452735017656
C            6.12434188628716       -3.54046641454392        2.79739884768004
C            6.96544633873432       -2.82374884169421        3.62952978685591
C            7.03083118994796       -1.41058505866093        3.47672766117456
C            7.90701578084932       -0.62010766710459        4.27029600047259
C            7.92117856328062        0.75312963777320        4.08212183368313
C            7.11756300163231        1.37132230370615        3.12955946149121
C            6.27512361971975        0.62787121957044        2.34867392165725
C            6.21120484411254       -0.76967432451022        2.50769023462883
C            7.78451956358464       -3.47130516309057        4.64526686123158
C            7.72547681387992       -4.83549111151640        4.88022005862994
C            8.52266677769799       -5.45017061614691        5.84469443630526
C            9.39547310085243       -4.70729349317759        6.59095018607396
C            9.48828672322957       -3.31489480813805        6.39956578139443
C           10.38362405693611       -2.54572058307448        7.16819654071126
C           10.47061171746143       -1.19404657812887        6.97848660364356
C            9.66559109976742       -0.56568696503260        6.02939084548137
C            8.76352920535360       -1.27391745223388        5.25164163801399
C            8.67210870552924       -2.68116627320522        5.42384157279514
H            2.51118957101593        1.66912243772005        0.37294187312472
H            3.59861810602230        0.55808176407080        1.13059663088879
H            1.93079163815442        0.56448382702111        1.48624292849586
H            3.02926904149708        0.05893554653566       -1.21190376816145
H            1.55158420592748       -0.65016080805610       -0.51938591823390
H            3.70951633785031       -2.16660110525638       -0.57386816855070
H            2.87964050203499       -2.06036451645988        1.00159802682027
H            4.68480422324686       -3.53599614685202        1.22065752538258
H            6.07023713937239       -4.61349453106291        2.86069317855864
H            8.56915228577720        1.38017561975028        4.67057042259918
H            7.16992828890509        2.44261692298201        3.00611193659886
H            5.68273811546370        1.10741369391513        1.58155933287719
H            7.05243026284690       -5.46189119231465        4.31791062130078
H            8.44465043041995       -6.51645381076199        5.99304063266591
H           10.02230140556891       -5.17275903039715        7.33651213994665
H           10.99739885764204       -3.04251038076861        7.90431684271523
H           11.15935123343957       -0.60206668889389        7.56183595467821
H            9.76975820326099        0.50100972087583        5.91741718969663

          :  Hamiltonian                  GFN2-xTB          :
         :: total energy             -62.875354820861 Eh    ::
         :: gradient norm              0.000670203519 Eh/a0 ::
         :: HOMO-LUMO gap              1.828162267910 eV    ::
         :: SCC energy               -63.975894943667 Eh    ::
         :: -> dispersion             -0.050288307748 Eh    ::
         :: repulsion energy           1.100634791453 Eh    ::

    * Orbital Energies and Occupations

         #    Occupation            Energy/Eh            Energy/eV
      -------------------------------------------------------------
         1        2.0000           -0.8830108             -24.0279
       ...           ...                  ...                  ...
        46        2.0000           -0.5343000             -14.5390
        47        2.0000           -0.5284821             -14.3807
        48        2.0000           -0.5254308             -14.2977
        49        2.0000           -0.5197730             -14.1437
        50        2.0000           -0.5168452             -14.0641
        51        2.0000           -0.5127486             -13.9526
        52        2.0000           -0.4962363             -13.5033
        53        2.0000           -0.4871008             -13.2547
        54        2.0000           -0.4859192             -13.2225
        55        2.0000           -0.4847475             -13.1906
        56        2.0000           -0.4820401             -13.1170
        57        2.0000           -0.4750501             -12.9268
        58        2.0000           -0.4380411             -11.9197 (HOMO)
        59                         -0.3708573             -10.0915 (LUMO)
        60                         -0.3225657              -8.7775
        61                         -0.3090304              -8.4091
        62                         -0.3084804              -8.3942
        63                         -0.3006919              -8.1822
        64                         -0.2486195              -6.7653
        65                         -0.2402570              -6.5377
        66                         -0.2392569              -6.5105
        67                         -0.1974784              -5.3737
        68                         -0.1607839              -4.3752
        69                         -0.1528422              -4.1590
       ...                                ...                  ...
       114                          0.6536929              17.7879
      -------------------------------------------------------------
                  HL-Gap            0.0671837 Eh            1.8282 eV

     #   Z          covCN         q      C6AA      α(0)
     1   7 N        3.484    -0.148    24.182     7.304
     2   6 C        3.730    -0.036    21.314     6.590
     3   6 C        3.689     0.058    19.785     6.366
     4   8 O        1.704    -0.305    19.074     5.897
     5   6 C        2.859     0.108    25.612     8.295
     6   6 C        2.909    -0.064    29.592     8.920
     7   6 C        2.925    -0.042    29.042     8.838
     8   6 C        2.972     0.008    27.826     8.653
     9   6 C        2.994     0.006    27.883     8.662
    10   6 C        2.974     0.016    27.657     8.626
    11   6 C        2.923    -0.036    28.891     8.815
    12   6 C        2.913    -0.028    28.708     8.786
    13   6 C        2.919    -0.046    29.150     8.854
    14   6 C        2.983    -0.008    28.223     8.714
    15   6 C        2.974     0.005    27.904     8.665
    16   6 C        2.923    -0.031    28.762     8.795
    17   6 C        2.913    -0.027    28.680     8.782
    18   6 C        2.922    -0.028    28.701     8.785
    19   6 C        2.986     0.017    27.627     8.622
    20   6 C        2.922    -0.028    28.700     8.785
    21   6 C        2.912    -0.027    28.669     8.780
    22   6 C        2.923    -0.029    28.734     8.791
    23   6 C        2.973     0.005    27.916     8.667
    24   6 C        2.995     0.006    27.870     8.660
    25   1 H        0.859     0.262     0.838     1.434
    26   1 H        0.855     0.311     0.681     1.293
    27   1 H        0.859     0.261     0.843     1.438
    28   1 H        0.924     0.117     1.637     2.001
    29   1 H        0.925     0.108     1.717     2.049
    30   1 H        0.924     0.084     1.934     2.175
    31   1 H        0.923     0.063     2.168     2.302
    32   1 H        0.926     0.035     2.512     2.478
    33   1 H        0.926     0.050     2.319     2.382
    34   1 H        0.926     0.047     2.352     2.398
    35   1 H        0.926     0.039     2.468     2.457
    36   1 H        0.925     0.011     2.880     2.654
    37   1 H        0.926     0.039     2.457     2.451
    38   1 H        0.926     0.045     2.389     2.417
    39   1 H        0.926     0.048     2.351     2.398
    40   1 H        0.926     0.048     2.351     2.398
    41   1 H        0.926     0.045     2.379     2.412
    42   1 H        0.926     0.042     2.421     2.433

Wiberg/Mayer (AO) data.
largest (>0.10) Wiberg bond orders for each atom

     #   Z sym  total        # sym  WBO       # sym  WBO       # sym  WBO
 ---------------------------------------------------------------------------
     1   7 N    3.654 --     2 C    0.953    25 H    0.919    27 H    0.918
                            26 H    0.808
     2   6 C    3.912 --     3 C    0.997    29 H    0.970    28 H    0.966
                             1 N    0.953
     3   6 C    3.949 --     2 C    0.997     4 O    0.986    31 H    0.965
                            30 H    0.961
     4   8 O    2.197 --     3 C    0.986     5 C    0.956
     5   6 C    3.875 --     6 C    1.482    14 C    1.231     4 O    0.956
     6   6 C    3.988 --     5 C    1.482     7 C    1.354    32 H    0.965
     7   6 C    3.969 --     8 C    1.444     6 C    1.354    33 H    0.961
     8   6 C    3.987 --     7 C    1.444     9 C    1.243    15 C    1.104
     9   6 C    3.988 --    14 C    1.258    10 C    1.252     8 C    1.243
    10   6 C    3.987 --    11 C    1.435     9 C    1.252    23 C    1.103
    11   6 C    3.971 --    10 C    1.435    12 C    1.371    34 H    0.961
    12   6 C    3.990 --    13 C    1.513    11 C    1.371    35 H    0.970
    13   6 C    3.963 --    12 C    1.513    14 C    1.289    36 H    0.963
    14   6 C    3.986 --    13 C    1.289     9 C    1.258     5 C    1.231
    15   6 C    3.989 --    16 C    1.439    24 C    1.249     8 C    1.104
    16   6 C    3.969 --    15 C    1.439    17 C    1.364    37 H    0.962
    17   6 C    3.990 --    18 C    1.523    16 C    1.364    38 H    0.969
    18   6 C    3.962 --    17 C    1.523    19 C    1.281    39 H    0.967
    19   6 C    3.990 --    18 C    1.281    20 C    1.281    24 C    1.255
    20   6 C    3.962 --    21 C    1.524    19 C    1.281    40 H    0.967
    21   6 C    3.990 --    20 C    1.524    22 C    1.364    41 H    0.969
    22   6 C    3.970 --    23 C    1.439    21 C    1.364    42 H    0.961
    23   6 C    3.989 --    22 C    1.439    24 C    1.249    10 C    1.103
    24   6 C    3.989 --    19 C    1.255    23 C    1.249    15 C    1.249
    25   1 H    0.931 --     1 N    0.919
    26   1 H    0.903 --     1 N    0.808
    27   1 H    0.932 --     1 N    0.918
    28   1 H    0.986 --     2 C    0.966
    29   1 H    0.988 --     2 C    0.970
    30   1 H    0.992 --     3 C    0.961
    31   1 H    0.996 --     3 C    0.965
    32   1 H    0.998 --     6 C    0.965
    33   1 H    0.997 --     7 C    0.961
    34   1 H    0.997 --    11 C    0.961
    35   1 H    0.997 --    12 C    0.970
    36   1 H    0.999 --    13 C    0.963
    37   1 H    0.998 --    16 C    0.962
    38   1 H    0.997 --    17 C    0.969
    39   1 H    0.997 --    18 C    0.967
    40   1 H    0.997 --    20 C    0.967
    41   1 H    0.997 --    21 C    0.969
    42   1 H    0.998 --    22 C    0.961
 ---------------------------------------------------------------------------

molecular dipole:
                 x           y           z       tot (Debye)
 q only:        6.607      -0.258       2.745
   full:        6.446      -0.227       2.708      17.781

           -------------------------------------------------
          | TOTAL ENERGY              -62.875354820861 Eh   |
          | GRADIENT NORM               0.000670203519 Eh/α |
          | HOMO-LUMO GAP               1.828162267910 eV   |
           -------------------------------------------------

 * finished run on 2023/01/23 at 21:00:55.072
