   * xtb version 6.5.1 (fef0646) compiled by 'conda@b96dff2e9fd6' on 2023-01-04
          program call               : xtb init.xyz --opt -c 1 -u 0 -P 16

   ID    Z sym.   atoms
    1    7 N      1
    2    6 C      2-6
    3    8 O      7, 8
    4    1 H      9-20

          :  Hamiltonian                  GFN2-xTB          :
 * total energy  :   -27.4338840 Eh     change       -0.8173728E-10 Eh
 * total energy  :   -27.4369485 Eh     change       -0.3064497E-02 Eh
 * total energy  :   -27.4374212 Eh     change       -0.4727115E-03 Eh
 * total energy  :   -27.4376401 Eh     change       -0.2188833E-03 Eh
 * total energy  :   -27.4377698 Eh     change       -0.1296880E-03 Eh
 * total energy  :   -27.4379077 Eh     change       -0.1378919E-03 Eh
 * total energy  :   -27.4380535 Eh     change       -0.1457575E-03 Eh
 * total energy  :   -27.4381683 Eh     change       -0.1148273E-03 Eh
 * total energy  :   -27.4382349 Eh     change       -0.6664107E-04 Eh
 * total energy  :   -27.4382691 Eh     change       -0.3419447E-04 Eh
 * total energy  :   -27.4495904 Eh     change       -0.5805284E-04 Eh
 * total energy  :   -27.4496224 Eh     change       -0.3202644E-04 Eh
 * total energy  :   -27.4496501 Eh     change       -0.2765859E-04 Eh
 * total energy  :   -27.4496832 Eh     change       -0.3311308E-04 Eh
 * total energy  :   -27.4497051 Eh     change       -0.2189388E-04 Eh
 * total energy  :   -27.4497219 Eh     change       -0.1679762E-04 Eh
 * total energy  :   -27.4497395 Eh     change       -0.1766407E-04 Eh
 * total energy  :   -27.4497439 Eh     change       -0.4344350E-05 Eh
 * total energy  :   -27.4497473 Eh     change       -0.3414323E-05 Eh
   *** GEOMETRY OPTIMIZATION CONVERGED AFTER 59 ITERATIONS ***

 final structure:
================
20
 xtb: 6.5.1 (fef0646)
N            1.36454826298274        0.47040189089274        0.32551354981716
C            2.79251205300991        0.09277908502059        0.06599412628326
C            2.95991010055956       -0.43800631937017       -1.35218438012097
C            4.42420161084433       -0.48021728624352       -1.80890212426620
C            5.28907833611910       -1.56645302985405       -1.16451983859281
C            5.78250954813392       -1.20622564701855        0.22853950376634
O            6.68647622427029       -2.02961916277190        0.75040591359352
O            5.38103853753269       -0.25711983861241        0.84557063973299
H            1.26256666776459        0.83967299975407        1.27859262465861
H            0.75295334737033       -0.34838493954736        0.21881960177779
H            1.06312852333805        1.19061778644883       -0.34364163322455
H            3.08987774571212       -0.64774266033769        0.80576532088136
H            3.41844797293830        0.97261920363001        0.21298650668291
H            2.43074757220564        0.22613897022484       -2.04102886755811
H            2.52250005527906       -1.43475324467569       -1.44146387316383
H            4.88606878268982        0.48972777800840       -1.62109090833643
H            4.42343283692976       -0.64771419417193       -2.88615414537059
H            6.16469133682358       -1.73298044218405       -1.79632557311893
H            4.74273207951033       -2.51180359560684       -1.10608397075177
H            6.97170840598604       -2.74250735358567        0.16275752731043

          :  Hamiltonian                  GFN2-xTB          :
         :: total energy             -27.449747280216 Eh    ::
         :: gradient norm              0.000874990804 Eh/a0 ::
         :: HOMO-LUMO gap              5.054488289449 eV    ::
         :: SCC energy               -27.763655740416 Eh    ::
         :: -> dispersion             -0.011317947449 Eh    ::
         :: repulsion energy           0.313865547684 Eh    ::

    * Orbital Energies and Occupations

         #    Occupation            Energy/Eh            Energy/eV
      -------------------------------------------------------------
         1        2.0000           -0.8885702             -24.1792
       ...           ...                  ...                  ...
        12        2.0000           -0.6985426             -19.0083
        13        2.0000           -0.6893381             -18.7578
        14        2.0000           -0.6774891             -18.4354
        15        2.0000           -0.6679651             -18.1763
        16        2.0000           -0.6494189             -17.6716
        17        2.0000           -0.6429737             -17.4962
        18        2.0000           -0.6279069             -17.0862
        19        2.0000           -0.6195121             -16.8578
        20        2.0000           -0.5941617             -16.1680
        21        2.0000           -0.5881754             -16.0051
        22        2.0000           -0.5837289             -15.8841
        23        2.0000           -0.5827414             -15.8572
        24        2.0000           -0.5319877             -14.4761 (HOMO)
        25                         -0.3462387              -9.4216 (LUMO)
        26                         -0.2580193              -7.0211
        27                         -0.1572819              -4.2799
        28                         -0.0962626              -2.6194
        29                         -0.0951758              -2.5899
        30                         -0.0726184              -1.9760
        31                         -0.0498148              -1.3555
        32                         -0.0411498              -1.1197
        33                         -0.0306359              -0.8336
        34                         -0.0078365              -0.2132
        35                         -0.0052027              -0.1416
       ...                                ...                  ...
        44                          0.5198077              14.1447
      -------------------------------------------------------------
                  HL-Gap            0.1857490 Eh            5.0545 eV

     #   Z          covCN         q      C6AA      α(0)
     1   7 N        3.482    -0.129    23.796     7.245
     2   6 C        3.730    -0.040    21.393     6.603
     3   6 C        3.800    -0.078    21.999     6.678
     4   6 C        3.801    -0.066    21.766     6.642
     5   6 C        3.800    -0.113    22.668     6.779
     6   6 C        2.687     0.358    20.926     7.486
     7   8 O        1.660    -0.347    19.853     6.015
     8   8 O        0.857    -0.393    21.536     6.222
     9   1 H        0.859     0.273     0.800     1.401
    10   1 H        0.859     0.268     0.817     1.416
    11   1 H        0.859     0.269     0.812     1.412
    12   1 H        0.925     0.118     1.626     1.994
    13   1 H        0.925     0.130     1.533     1.936
    14   1 H        0.924     0.061     2.182     2.310
    15   1 H        0.924     0.063     2.159     2.298
    16   1 H        0.924     0.072     2.064     2.247
    17   1 H        0.925     0.072     2.061     2.245
    18   1 H        0.924     0.077     2.009     2.216
    19   1 H        0.924     0.071     2.075     2.252
    20   1 H        0.805     0.333     0.628     1.245

Wiberg/Mayer (AO) data.
largest (>0.10) Wiberg bond orders for each atom

     #   Z sym  total        # sym  WBO       # sym  WBO       # sym  WBO
 ---------------------------------------------------------------------------
     1   7 N    3.674 --     2 C    0.915    10 H    0.913     9 H    0.912
                            11 H    0.910
     2   6 C    3.875 --     3 C    1.010    12 H    0.963    13 H    0.959
                             1 N    0.915
     3   6 C    3.986 --     2 C    1.010     4 C    1.001    15 H    0.974
                            14 H    0.970
     4   6 C    3.988 --     5 C    1.010     3 C    1.001    17 H    0.972
                            16 H    0.972
     5   6 C    3.995 --     4 C    1.010     6 C    0.968    18 H    0.956
                            19 H    0.952
     6   6 C    3.917 --     8 O    1.758     7 O    1.159     5 C    0.968
     7   8 O    2.239 --     6 C    1.159    20 H    0.866     8 O    0.166
     8   8 O    2.048 --     6 C    1.758     7 O    0.166
     9   1 H    0.925 --     1 N    0.912
    10   1 H    0.928 --     1 N    0.913
    11   1 H    0.927 --     1 N    0.910
    12   1 H    0.986 --     2 C    0.963
    13   1 H    0.983 --     2 C    0.959
    14   1 H    0.996 --     3 C    0.970
    15   1 H    0.996 --     3 C    0.974
    16   1 H    0.995 --     4 C    0.972
    17   1 H    0.995 --     4 C    0.972
    18   1 H    0.994 --     5 C    0.956
    19   1 H    0.995 --     5 C    0.952
    20   1 H    0.889 --     7 O    0.866
 ---------------------------------------------------------------------------

molecular dipole:
                 x           y           z       tot (Debye)
 q only:        3.748      -0.484      -0.879
   full:        3.591      -0.707      -1.059       9.685

           -------------------------------------------------
          | TOTAL ENERGY              -27.449747280216 Eh   |
          | GRADIENT NORM               0.000874990804 Eh/α |
          | HOMO-LUMO GAP               5.054488289449 eV   |
           -------------------------------------------------

 * finished run on 2023/01/23 at 14:14:31.919
