   * xtb version 6.5.1 (fef0646) compiled by 'conda@b96dff2e9fd6' on 2023-01-04
          program call               : xtb init.xyz --opt -c 1 -u 0 -P 16 --input xtb.inp

   ID    Z sym.   atoms
    1    7 N      1
    2    6 C      2, 3
    3    1 H      4-11

          :  Hamiltonian                  GFN2-xTB          :
 * total energy  :   -10.8377621 Eh     change       -0.1842793E-10 Eh
 * total energy  :   -10.8383984 Eh     change       -0.6362997E-03 Eh
 * total energy  :   -10.8384717 Eh     change       -0.7330793E-04 Eh
 * total energy  :   -10.8384828 Eh     change       -0.1108414E-04 Eh
 * total energy  :   -10.8384839 Eh     change       -0.1172492E-05 Eh
   *** GEOMETRY OPTIMIZATION CONVERGED AFTER 5 ITERATIONS ***

 final structure:
================
11
 xtb: 6.5.1 (fef0646)
N            0.95655131433018        0.01271100755290       -0.08470007659305
C            2.45615630614317        0.03301363999889       -0.09254135232271
C            2.94710445592604        1.36958537078544       -0.60876359395095
H            0.59107117898285       -0.88326135258912        0.26134797040451
H            0.60292499458747        0.17086113452098       -1.03819335253604
H            0.60292483428284        0.77072474768334        0.51494638824271
H            2.80602511652577       -0.78044039206638       -0.72919499418940
H            2.80602492753539       -0.14130427073827        0.92561813595061
H            2.61318700941587        1.54855352372703       -1.62773275096200
H            4.03307294390538        1.37824987136435       -0.61211000699990
H            2.61318691836505        2.18702671976084        0.02536363295623

          :  Hamiltonian                  GFN2-xTB          :
         :: total energy             -10.838483949271 Eh    ::
         :: gradient norm              0.000278740321 Eh/a0 ::
         :: HOMO-LUMO gap              9.679790890536 eV    ::
         :: SCC energy               -10.995636632482 Eh    ::
         :: -> dispersion             -0.003048218823 Eh    ::
         :: repulsion energy           0.157151397970 Eh    ::

    * Orbital Energies and Occupations

         #    Occupation            Energy/Eh            Energy/eV
      -------------------------------------------------------------
         1        2.0000           -0.9033664             -24.5819
         2        2.0000           -0.8497116             -23.1218
         3        2.0000           -0.8132137             -22.1287
         4        2.0000           -0.8084075             -21.9979
         5        2.0000           -0.7761619             -21.1204
         6        2.0000           -0.7363003             -20.0358
         7        2.0000           -0.6936570             -18.8754
         8        2.0000           -0.6631204             -18.0444
         9        2.0000           -0.6371790             -17.3385
        10        2.0000           -0.6266982             -17.0533 (HOMO)
        11                         -0.2709725              -7.3735 (LUMO)
        12                         -0.1663040              -4.5254
        13                         -0.1074006              -2.9225
        14                         -0.1049478              -2.8558
        15                         -0.0621982              -1.6925
        16                         -0.0046580              -0.1268
        17                         -0.0043471              -0.1183
        18                          0.0269922               0.7345
        19                          0.0723030               1.9675
        20                          0.1003917               2.7318
      -------------------------------------------------------------
                  HL-Gap            0.3557258 Eh            9.6798 eV

     #   Z          covCN         q      C6AA      α(0)
     1   7 N        3.483    -0.128    23.759     7.240
     2   6 C        3.729    -0.027    21.157     6.566
     3   6 C        3.753    -0.144    23.344     6.890
     4   1 H        0.859     0.270     0.810     1.409
     5   1 H        0.859     0.274     0.795     1.397
     6   1 H        0.859     0.274     0.795     1.397
     7   1 H        0.924     0.110     1.695     2.036
     8   1 H        0.924     0.110     1.695     2.036
     9   1 H        0.925     0.077     2.007     2.215
    10   1 H        0.925     0.105     1.737     2.061
    11   1 H        0.925     0.077     2.007     2.215

Wiberg/Mayer (AO) data.
largest (>0.10) Wiberg bond orders for each atom

     #   Z sym  total        # sym  WBO       # sym  WBO       # sym  WBO
 ---------------------------------------------------------------------------
     1   7 N    3.675 --     2 C    0.921     4 H    0.913     6 H    0.909
                             5 H    0.909
     2   6 C    3.890 --     3 C    1.027     7 H    0.967     8 H    0.967
                             1 N    0.921
     3   6 C    3.974 --     2 C    1.027    11 H    0.980     9 H    0.980
                            10 H    0.968
     4   1 H    0.927 --     1 N    0.913
     5   1 H    0.925 --     1 N    0.909
     6   1 H    0.925 --     1 N    0.909
     7   1 H    0.988 --     2 C    0.967
     8   1 H    0.988 --     2 C    0.967
     9   1 H    0.994 --     3 C    0.980
    10   1 H    0.989 --     3 C    0.968
    11   1 H    0.994 --     3 C    0.980
 ---------------------------------------------------------------------------

molecular dipole:
                 x           y           z       tot (Debye)
 q only:        2.501       0.287      -0.262
   full:        2.253       0.220      -0.236       5.785

           -------------------------------------------------
          | TOTAL ENERGY              -10.838483949271 Eh   |
          | GRADIENT NORM               0.000278740321 Eh/α |
          | HOMO-LUMO GAP               9.679790890536 eV   |
           -------------------------------------------------

 * finished run on 2023/01/23 at 18:49:30.113
