   * xtb version 6.5.1 (fef0646) compiled by 'conda@b96dff2e9fd6' on 2023-01-04
          program call               : xtb init.xyz --opt -c 1 -u 0 -P 16 --alpb water

   ID    Z sym.   atoms
    1    7 N      1
    2    6 C      2, 3
    3    1 H      4-11

      * Solvation model:               ALPB
        Solvent                        water
        Solvent mass                       1.8000E+01 g/mol
          :  Hamiltonian                  GFN2-xTB          :
 * total energy  :   -10.9505093 Eh     change       -0.1092282E-10 Eh
 * total energy  :   -10.9511655 Eh     change       -0.6562605E-03 Eh
 * total energy  :   -10.9512332 Eh     change       -0.6764187E-04 Eh
 * total energy  :   -10.9512415 Eh     change       -0.8303420E-05 Eh
 * total energy  :   -10.9512421 Eh     change       -0.6222400E-06 Eh
   *** GEOMETRY OPTIMIZATION CONVERGED AFTER 5 ITERATIONS ***

 final structure:
================
11
 xtb: 6.5.1 (fef0646)
N            1.05676465882508        0.05565506414802       -0.04885099803977
C            2.54235255046669        0.06586277606727       -0.03476041065982
C            3.04690150332097        0.85167072285268        1.16329858350571
H            0.69911154920328       -0.46760141737357       -0.85568096044904
H            0.70047842405825        1.01787412428583       -0.09288295360727
H            0.70068041158682       -0.37748953137336        0.81164265124865
H            2.90281100743601        0.51961310528935       -0.95745118932333
H            2.90394359902381       -0.96087520920736        0.01252138851265
H            2.71606191461665        1.88599820724528        1.12444281212091
H            4.13243282099680        0.85305947902318        1.17220592594352
H            2.71000156046563        0.40853267904266        2.09647515074779

          :  Hamiltonian                  GFN2-xTB          :
         :: total energy             -10.951242100732 Eh    ::
         :: gradient norm              0.000227442455 Eh/a0 ::
         :: HOMO-LUMO gap             10.896300585825 eV    ::
         :: SCC energy               -11.110141373003 Eh    ::
         :: -> dispersion             -0.003081209869 Eh    ::
         :: -> Gsolv                  -0.116261608934 Eh    ::
         :: repulsion energy           0.158898000491 Eh    ::

    * Orbital Energies and Occupations

         #    Occupation            Energy/Eh            Energy/eV
      -------------------------------------------------------------
         1        2.0000           -0.6913026             -18.8113
         2        2.0000           -0.6432420             -17.5035
         3        2.0000           -0.6054688             -16.4756
         4        2.0000           -0.5887779             -16.0215
         5        2.0000           -0.5774413             -15.7130
         6        2.0000           -0.5434544             -14.7881
         7        2.0000           -0.5026282             -13.6772
         8        2.0000           -0.4779041             -13.0044
         9        2.0000           -0.4648386             -12.6489
        10        2.0000           -0.4469249             -12.1614 (HOMO)
        11                         -0.0464933              -1.2651 (LUMO)
        12                          0.0585079               1.5921
        13                          0.0991926               2.6992
        14                          0.1106794               3.0117
        15                          0.1348211               3.6687
        16                          0.1847505               5.0273
        17                          0.1960321               5.3343
        18                          0.2119365               5.7671
        19                          0.2475248               6.7355
        20                          0.2811402               7.6502
      -------------------------------------------------------------
                  HL-Gap            0.4004317 Eh           10.8963 eV

     #   Z          covCN         q      C6AA      α(0)
     1   7 N        3.485    -0.162    24.487     7.350
     2   6 C        3.730    -0.031    21.221     6.576
     3   6 C        3.753    -0.148    23.427     6.902
     4   1 H        0.859     0.312     0.678     1.290
     5   1 H        0.859     0.308     0.691     1.302
     6   1 H        0.859     0.308     0.691     1.302
     7   1 H        0.925     0.105     1.741     2.064
     8   1 H        0.925     0.105     1.743     2.064
     9   1 H        0.925     0.069     2.096     2.264
    10   1 H        0.925     0.066     2.134     2.284
    11   1 H        0.925     0.069     2.094     2.263

Wiberg/Mayer (AO) data.
largest (>0.10) Wiberg bond orders for each atom

     #   Z sym  total        # sym  WBO       # sym  WBO       # sym  WBO
 ---------------------------------------------------------------------------
     1   7 N    3.654 --     2 C    0.963     6 H    0.891     5 H    0.890
                             4 H    0.889
     2   6 C    3.928 --     3 C    1.026     8 H    0.968     7 H    0.968
                             1 N    0.963
     3   6 C    3.985 --     2 C    1.026     9 H    0.982    11 H    0.982
                            10 H    0.978
     4   1 H    0.903 --     1 N    0.889
     5   1 H    0.905 --     1 N    0.890
     6   1 H    0.905 --     1 N    0.891
     7   1 H    0.989 --     2 C    0.968
     8   1 H    0.989 --     2 C    0.968
     9   1 H    0.995 --     3 C    0.982
    10   1 H    0.996 --     3 C    0.978
    11   1 H    0.995 --     3 C    0.982
 ---------------------------------------------------------------------------

molecular dipole:
                 x           y           z       tot (Debye)
 q only:        2.273       0.155      -0.017
   full:        2.162       0.152      -0.022       5.509

           -------------------------------------------------
          | TOTAL ENERGY              -10.951242100732 Eh   |
          | GRADIENT NORM               0.000227442455 Eh/α |
          | HOMO-LUMO GAP              10.896300585825 eV   |
           -------------------------------------------------

 * finished run on 2023/01/24 at 15:15:14.433
