   * xtb version 6.5.1 (fef0646) compiled by 'conda@b96dff2e9fd6' on 2023-01-04
          program call               : xtb init.xyz --opt -c 1 -u 0 -P 16 --alpb water

   ID    Z sym.   atoms
    1    7 N      1
    2    6 C      2-5
    3    8 O      6, 7
    4    1 H      8-17

      * Solvation model:               ALPB
        Solvent                        water
        Solvent mass                       1.8000E+01 g/mol
          :  Hamiltonian                  GFN2-xTB          :
 * total energy  :   -24.4028648 Eh     change       -0.4725464E-10 Eh
 * total energy  :   -24.4048163 Eh     change       -0.1951552E-02 Eh
 * total energy  :   -24.4050727 Eh     change       -0.2563286E-03 Eh
 * total energy  :   -24.4050892 Eh     change       -0.1655460E-04 Eh
 * total energy  :   -24.4050911 Eh     change       -0.1919397E-05 Eh
   *** GEOMETRY OPTIMIZATION CONVERGED AFTER 5 ITERATIONS ***

 final structure:
================
17
 xtb: 6.5.1 (fef0646)
N            1.02723004037292        0.01653540036138        0.06002955365798
C            2.50849006570175        0.03527050974948        0.06147905701228
C            3.01678263025100        1.47253095827631        0.01228441109207
C            4.54431584931682        1.51681585913321        0.01041300455090
C            5.04587345914913        2.94122649958498       -0.03976214423606
O            6.36849523007410        3.10006436546667       -0.04601014752993
O            4.31666909269680        3.90605316536154       -0.07440573703769
H            0.67293880639341       -0.94639619474862        0.08936106621537
H            0.66861559475539        0.47471441840280       -0.78632529100029
H            0.66633923862393        0.52648672199923        0.87513740257250
H            2.87296799447184       -0.51633077696199       -0.80514119929631
H            2.87052801649777       -0.45537997279248        0.96497993129597
H            2.66052885808192        2.04095428214609        0.87230311975223
H            2.66064301218047        1.98033654581151       -0.88490536408173
H            4.94231718573988        0.98535202150800       -0.85685763882678
H            4.94311832426841        1.04685387304884        0.91211550459406
H            6.87145660142444        2.26629232365304       -0.01499552873456

          :  Hamiltonian                  GFN2-xTB          :
         :: total energy             -24.405091129549 Eh    ::
         :: gradient norm              0.000684653079 Eh/a0 ::
         :: HOMO-LUMO gap              5.066555611876 eV    ::
         :: SCC energy               -24.671402954807 Eh    ::
         :: -> dispersion             -0.008140939470 Eh    ::
         :: -> Gsolv                  -0.143458491390 Eh    ::
         :: repulsion energy           0.266317328000 Eh    ::

    * Orbital Energies and Occupations

         #    Occupation            Energy/Eh            Energy/eV
      -------------------------------------------------------------
         1        2.0000           -0.7459312             -20.2978
       ...           ...                  ...                  ...
         9        2.0000           -0.5898220             -16.0499
        10        2.0000           -0.5824756             -15.8500
        11        2.0000           -0.5687498             -15.4765
        12        2.0000           -0.5533648             -15.0578
        13        2.0000           -0.5479878             -14.9115
        14        2.0000           -0.5231665             -14.2361
        15        2.0000           -0.5097883             -13.8720
        16        2.0000           -0.4830896             -13.1455
        17        2.0000           -0.4829836             -13.1427
        18        2.0000           -0.4756269             -12.9425
        19        2.0000           -0.4702250             -12.7955
        20        2.0000           -0.4443186             -12.0905
        21        2.0000           -0.4251196             -11.5681 (HOMO)
        22                         -0.2389271              -6.5015 (LUMO)
        23                         -0.0542065              -1.4750
        24                          0.0414526               1.1280
        25                          0.0646587               1.7595
        26                          0.0712660               1.9392
        27                          0.0988374               2.6895
        28                          0.1180740               3.2130
        29                          0.1335377               3.6337
        30                          0.1441195               3.9217
        31                          0.1609731               4.3803
        32                          0.1627725               4.4293
       ...                                ...                  ...
        38                          0.6001383              16.3306
      -------------------------------------------------------------
                  HL-Gap            0.1861925 Eh            5.0666 eV

     #   Z          covCN         q      C6AA      α(0)
     1   7 N        3.485    -0.161    24.477     7.348
     2   6 C        3.732    -0.041    21.404     6.604
     3   6 C        3.804    -0.082    22.057     6.686
     4   6 C        3.803    -0.120    22.786     6.796
     5   6 C        2.690     0.371    20.715     7.449
     6   8 O        1.659    -0.437    21.573     6.270
     7   8 O        0.856    -0.468    23.093     6.443
     8   1 H        0.859     0.320     0.657     1.270
     9   1 H        0.859     0.309     0.687     1.299
    10   1 H        0.859     0.309     0.687     1.299
    11   1 H        0.925     0.116     1.645     2.006
    12   1 H        0.925     0.116     1.644     2.005
    13   1 H        0.924     0.077     2.015     2.220
    14   1 H        0.924     0.077     2.015     2.220
    15   1 H        0.924     0.100     1.788     2.091
    16   1 H        0.924     0.100     1.789     2.092
    17   1 H        0.804     0.416     0.457     1.062

Wiberg/Mayer (AO) data.
largest (>0.10) Wiberg bond orders for each atom

     #   Z sym  total        # sym  WBO       # sym  WBO       # sym  WBO
 ---------------------------------------------------------------------------
     1   7 N    3.652 --     2 C    0.970    10 H    0.890     9 H    0.890
                             8 H    0.885
     2   6 C    3.926 --     3 C    1.011     1 N    0.970    11 H    0.964
                            12 H    0.964
     3   6 C    3.986 --     2 C    1.011     4 C    1.005    13 H    0.971
                            14 H    0.971
     4   6 C    3.989 --     3 C    1.005     5 C    0.983    16 H    0.945
                            15 H    0.945
     5   6 C    3.895 --     7 O    1.722     6 O    1.153     4 C    0.983
     6   8 O    2.167 --     5 C    1.153    17 H    0.806     7 O    0.157
     7   8 O    1.994 --     5 C    1.722     6 O    0.157
     8   1 H    0.897 --     1 N    0.885
     9   1 H    0.905 --     1 N    0.890
    10   1 H    0.905 --     1 N    0.890
    11   1 H    0.987 --     2 C    0.964
    12   1 H    0.986 --     2 C    0.964
    13   1 H    0.994 --     3 C    0.971
    14   1 H    0.994 --     3 C    0.971
    15   1 H    0.990 --     4 C    0.945
    16   1 H    0.990 --     4 C    0.945
    17   1 H    0.827 --     6 O    0.806
 ---------------------------------------------------------------------------

molecular dipole:
                 x           y           z       tot (Debye)
 q only:        2.934      -1.988       0.186
   full:        2.977      -2.141       0.192       9.333

           -------------------------------------------------
          | TOTAL ENERGY              -24.405091129549 Eh   |
          | GRADIENT NORM               0.000684653079 Eh/α |
          | HOMO-LUMO GAP               5.066555611876 eV   |
           -------------------------------------------------

 * finished run on 2023/01/24 at 15:57:22.571
