   * xtb version 6.5.1 (fef0646) compiled by 'conda@b96dff2e9fd6' on 2023-01-04
          program call               : xtb init.xyz --opt -c 0 -u 0 -P 16 --alpb water

   ID    Z sym.   atoms
    1    7 N      1
    2    6 C      2-7
    3   17 Cl     8
    4    1 H      9-24

      * Solvation model:               ALPB
        Solvent                        water
        Solvent mass                       1.8000E+01 g/mol
          :  Hamiltonian                  GFN2-xTB          :
 * total energy  :   -28.5145526 Eh     change       -0.5617302E-09 Eh
 * total energy  :   -28.5188365 Eh     change       -0.4283840E-02 Eh
 * total energy  :   -28.5199139 Eh     change       -0.1077416E-02 Eh
 * total energy  :   -28.5206359 Eh     change       -0.7220061E-03 Eh
 * total energy  :   -28.5210955 Eh     change       -0.4596301E-03 Eh
 * total energy  :   -28.5217904 Eh     change       -0.6948452E-03 Eh
 * total energy  :   -28.5222878 Eh     change       -0.4974244E-03 Eh
 * total energy  :   -28.5225314 Eh     change       -0.2435746E-03 Eh
 * total energy  :   -28.5226614 Eh     change       -0.1300476E-03 Eh
 * total energy  :   -28.5227338 Eh     change       -0.7240470E-04 Eh
 * total energy  :   -28.5230788 Eh     change       -0.2785962E-04 Eh
 * total energy  :   -28.5231116 Eh     change       -0.3285270E-04 Eh
 * total energy  :   -28.5231294 Eh     change       -0.1775817E-04 Eh
 * total energy  :   -28.5231451 Eh     change       -0.1571366E-04 Eh
 * total energy  :   -28.5231564 Eh     change       -0.1123292E-04 Eh
 * total energy  :   -28.5231683 Eh     change       -0.1198141E-04 Eh
 * total energy  :   -28.5231779 Eh     change       -0.9531841E-05 Eh
 * total energy  :   -28.5231839 Eh     change       -0.6031517E-05 Eh
 * total energy  :   -28.5231884 Eh     change       -0.4452102E-05 Eh
   *** GEOMETRY OPTIMIZATION CONVERGED AFTER 25 ITERATIONS ***

 final structure:
================
24
 xtb: 6.5.1 (fef0646)
N            1.18827644479593       -0.38689573173715        0.15244954235038
C            2.65767920889192       -0.28004763369526        0.04790789214041
C            3.12882352630669        1.04790828195385        0.62608962444961
C            4.63715776475028        1.22455913443176        0.46459186344841
C            5.11350154936035        2.56664025674239        1.01461008042582
C            6.62494640090801        2.73868721617685        0.87894302254068
C            7.09098122924074        4.09232125374043        1.40171632529855
Cl          -0.14203221135946        1.96528111142150       -1.28680432007012
H            0.84135426037866       -1.25188754613944       -0.26758560369229
H            0.73531907446673        0.41769623770768       -0.35222224177026
H            0.88967485934917       -0.33001022446225        1.12900490552171
H            2.93496698116959       -0.33140372945890       -1.00458747847538
H            3.12279496447276       -1.11010192871180        0.58132653963754
H            2.87626214519865        1.10596231955751        1.68586846115784
H            2.60592870991558        1.85730451116759        0.11260008304037
H            4.89981960700429        1.16130196065341       -0.59320038633939
H            5.15775322404330        0.41928877191321        0.98693140651494
H            4.83719739502997        2.64893537645413        2.06825570734443
H            4.60875857265310        3.37477147788254        0.47941533446291
H            6.90643135936496        2.64118935417909       -0.17200166834909
H            7.12976645245312        1.94407968811075        1.43267681375388
H            6.62031100165821        4.89868660823457        0.84299627881104
H            8.16937312897644        4.19127749762650        1.30360781135372
H            6.82890435097049        4.20729573625157        2.45120000644514

          :  Hamiltonian                  GFN2-xTB          :
         :: total energy             -28.523188354102 Eh    ::
         :: gradient norm              0.000476652810 Eh/a0 ::
         :: HOMO-LUMO gap             10.121365801789 eV    ::
         :: SCC energy               -28.867036739027 Eh    ::
         :: -> dispersion             -0.013576038571 Eh    ::
         :: -> Gsolv                  -0.072746578914 Eh    ::
         :: repulsion energy           0.343883423150 Eh    ::

    * Orbital Energies and Occupations

         #    Occupation            Energy/Eh            Energy/eV
      -------------------------------------------------------------
         1        2.0000           -1.0059524             -27.3734
       ...           ...                  ...                  ...
        14        2.0000           -0.4903174             -13.3422
        15        2.0000           -0.4783322             -13.0161
        16        2.0000           -0.4689325             -12.7603
        17        2.0000           -0.4640159             -12.6265
        18        2.0000           -0.4448603             -12.1053
        19        2.0000           -0.4421788             -12.0323
        20        2.0000           -0.4287560             -11.6670
        21        2.0000           -0.4235875             -11.5264
        22        2.0000           -0.4228676             -11.5068
        23        2.0000           -0.4147086             -11.2848
        24        2.0000           -0.4026097             -10.9556
        25        2.0000           -0.4002113             -10.8903
        26        2.0000           -0.3998632             -10.8808 (HOMO)
        27                         -0.0279098              -0.7595 (LUMO)
        28                          0.0596177               1.6223
        29                          0.0895178               2.4359
        30                          0.0984950               2.6802
        31                          0.1145554               3.1172
        32                          0.1156332               3.1465
        33                          0.1176078               3.2003
        34                          0.1182715               3.2183
        35                          0.1199764               3.2647
        36                          0.1201456               3.2693
        37                          0.1270255               3.4565
       ...                                ...                  ...
        53                          0.3241130               8.8196
      -------------------------------------------------------------
                  HL-Gap            0.3719533 Eh           10.1214 eV

     #   Z          covCN         q      C6AA      α(0)
     1   7 N        3.484    -0.170    24.658     7.375
     2   6 C        3.733    -0.026    21.133     6.561
     3   6 C        3.804    -0.077    21.974     6.674
     4   6 C        3.804    -0.068    21.791     6.646
     5   6 C        3.803    -0.064    21.720     6.635
     6   6 C        3.801    -0.059    21.645     6.624
     7   6 C        3.752    -0.110    22.670     6.790
     8  17 Cl       0.047    -0.948   124.917    17.010
     9   1 H        0.859     0.304     0.701     1.311
    10   1 H        0.903     0.293     0.732     1.338
    11   1 H        0.859     0.297     0.723     1.332
    12   1 H        0.925     0.095     1.829     2.115
    13   1 H        0.924     0.104     1.747     2.067
    14   1 H        0.924     0.059     2.212     2.326
    15   1 H        0.924     0.053     2.278     2.360
    16   1 H        0.924     0.038     2.480     2.463
    17   1 H        0.924     0.047     2.361     2.403
    18   1 H        0.924     0.036     2.507     2.476
    19   1 H        0.924     0.027     2.625     2.534
    20   1 H        0.924     0.030     2.584     2.514
    21   1 H        0.924     0.035     2.510     2.477
    22   1 H        0.925     0.032     2.562     2.503
    23   1 H        0.925     0.036     2.507     2.476
    24   1 H        0.925     0.037     2.496     2.471

Wiberg/Mayer (AO) data.
largest (>0.10) Wiberg bond orders for each atom

     #   Z sym  total        # sym  WBO       # sym  WBO       # sym  WBO
 ---------------------------------------------------------------------------
     1   7 N    3.645 --     2 C    0.968    11 H    0.897     9 H    0.894
                            10 H    0.834
     2   6 C    3.930 --     3 C    1.009    12 H    0.969     1 N    0.968
                            13 H    0.967
     3   6 C    3.992 --     2 C    1.009     4 C    1.005    14 H    0.974
                            15 H    0.973
     4   6 C    3.996 --     5 C    1.007     3 C    1.005    16 H    0.977
                            17 H    0.976
     5   6 C    3.997 --     6 C    1.008     4 C    1.007    19 H    0.978
                            18 H    0.977
     6   6 C    3.997 --     7 C    1.019     5 C    1.008    20 H    0.979
                            21 H    0.978
     7   6 C    3.996 --     6 C    1.019    22 H    0.988    24 H    0.988
                            23 H    0.987
     8  17 Cl   0.101
     9   1 H    0.907 --     1 N    0.894
    10   1 H    0.914 --     1 N    0.834
    11   1 H    0.912 --     1 N    0.897
    12   1 H    0.991 --     2 C    0.969
    13   1 H    0.989 --     2 C    0.967
    14   1 H    0.997 --     3 C    0.974
    15   1 H    0.997 --     3 C    0.973
    16   1 H    0.999 --     4 C    0.977
    17   1 H    0.998 --     4 C    0.976
    18   1 H    0.999 --     5 C    0.977
    19   1 H    0.999 --     5 C    0.978
    20   1 H    0.999 --     6 C    0.979
    21   1 H    0.999 --     6 C    0.978
    22   1 H    0.999 --     7 C    0.988
    23   1 H    0.998 --     7 C    0.987
    24   1 H    0.999 --     7 C    0.988
 ---------------------------------------------------------------------------

molecular dipole:
                 x           y           z       tot (Debye)
 q only:        2.630      -4.184       2.611
   full:        2.161      -3.635       2.271      12.202

           -------------------------------------------------
          | TOTAL ENERGY              -28.523188354102 Eh   |
          | GRADIENT NORM               0.000476652810 Eh/α |
          | HOMO-LUMO GAP              10.121365801789 eV   |
           -------------------------------------------------

 * finished run on 2023/01/24 at 14:57:51.093
