   * xtb version 6.5.1 (fef0646) compiled by 'conda@b96dff2e9fd6' on 2023-01-04
          program call               : xtb init.xyz --opt -c 1 -u 0 -P 16

   ID    Z sym.   atoms
    1    7 N      1
    2    6 C      2-9
    3    1 H      10-25

          :  Hamiltonian                  GFN2-xTB          :
 * total energy  :   -27.7742386 Eh     change       -0.1574065E-09 Eh
 * total energy  :   -27.7762174 Eh     change       -0.1978832E-02 Eh
 * total energy  :   -27.7770267 Eh     change       -0.8093072E-03 Eh
 * total energy  :   -27.7776450 Eh     change       -0.6182284E-03 Eh
 * total energy  :   -27.7781513 Eh     change       -0.5063592E-03 Eh
 * total energy  :   -27.7786106 Eh     change       -0.4592940E-03 Eh
 * total energy  :   -27.7790690 Eh     change       -0.4583457E-03 Eh
 * total energy  :   -27.7794974 Eh     change       -0.4283793E-03 Eh
 * total energy  :   -27.7797364 Eh     change       -0.2390357E-03 Eh
 * total energy  :   -27.7797359 Eh     change        0.4592236E-06 Eh
 * total energy  :   -27.7799397 Eh     change       -0.2038031E-03 Eh
 * total energy  :   -27.7799651 Eh     change       -0.2533430E-04 Eh
 * total energy  :   -27.7799970 Eh     change       -0.3192319E-04 Eh
 * total energy  :   -27.7800121 Eh     change       -0.1511851E-04 Eh
 * total energy  :   -27.7800488 Eh     change       -0.3668663E-04 Eh
 * total energy  :   -27.7800614 Eh     change       -0.1259755E-04 Eh
 * total energy  :   -27.7800747 Eh     change       -0.1335606E-04 Eh
 * total energy  :   -27.7800781 Eh     change       -0.3316529E-05 Eh
   *** GEOMETRY OPTIMIZATION CONVERGED AFTER 18 ITERATIONS ***

 final structure:
================
25
 xtb: 6.5.1 (fef0646)
N            3.01354459236508       -1.76585965798279       -3.45107955264312
C            2.38364896070642       -0.60298615188369       -2.76404705108041
C            2.86919020142442       -0.61354643497555       -1.30986907256781
C            4.37768539214350       -0.65609095548734       -1.30826667953302
C            5.03407166747020       -1.82169609627493       -1.31367067259818
C            6.52564062693765       -1.94268228554543       -1.35997650913163
C            7.21506077534782       -0.60298660849235       -1.11382316623349
C            6.51888779088266        0.49910325751149       -1.90393507010613
C            5.08588844858439        0.66098675077400       -1.40181738400299
H            3.10648015945131       -1.63445353718475       -4.46199507730857
H            2.49036400132777       -2.62988782028226       -3.27468904365851
H            3.97037007916448       -1.84397693505654       -2.97539829659277
H            1.29806047559537       -0.66555422570433       -2.82585250044998
H            2.71389476682930        0.31029820576433       -3.26003810667828
H            2.45656529049023       -1.47873441106122       -0.78922067075127
H            2.51179536697406        0.28421017145259       -0.80885755901422
H            4.50041941899343       -2.75646053585235       -1.17074316421415
H            6.82111218493525       -2.34246619520195       -2.33667872789935
H            6.84706375366604       -2.67327895176872       -0.61566221613617
H            8.26434902314460       -0.67063019643644       -1.39878972612083
H            7.17081273297334       -0.36217345496882       -0.05095785419857
H            6.51692200712740        0.24339041175754       -2.96664459262302
H            7.05513444352885        1.44032909179163       -1.79020552012629
H            4.53008986327615        1.34831269958246       -2.04420644799391
H            5.10063797666029        1.10790386552519       -0.40342533833711

          :  Hamiltonian                  GFN2-xTB          :
         :: total energy             -27.780078062512 Eh    ::
         :: gradient norm              0.000503888089 Eh/a0 ::
         :: HOMO-LUMO gap              4.799896213425 eV    ::
         :: SCC energy               -28.201230810906 Eh    ::
         :: -> dispersion             -0.017472176426 Eh    ::
         :: repulsion energy           0.420991921703 Eh    ::

    * Orbital Energies and Occupations

         #    Occupation            Energy/Eh            Energy/eV
      -------------------------------------------------------------
         1        2.0000           -0.8799457             -23.9445
       ...           ...                  ...                  ...
        14        2.0000           -0.6510939             -17.7172
        15        2.0000           -0.6470181             -17.6063
        16        2.0000           -0.6291296             -17.1195
        17        2.0000           -0.6211351             -16.9019
        18        2.0000           -0.6144270             -16.7194
        19        2.0000           -0.6025429             -16.3960
        20        2.0000           -0.5933188             -16.1450
        21        2.0000           -0.5918894             -16.1061
        22        2.0000           -0.5887301             -16.0202
        23        2.0000           -0.5464492             -14.8696
        24        2.0000           -0.5404802             -14.7072
        25        2.0000           -0.5378164             -14.6347
        26        2.0000           -0.5261193             -14.3164 (HOMO)
        27                         -0.3497264              -9.5165 (LUMO)
        28                         -0.2429014              -6.6097
        29                         -0.1462619              -3.9800
        30                         -0.0908815              -2.4730
        31                         -0.0872540              -2.3743
        32                         -0.0723120              -1.9677
        33                         -0.0465474              -1.2666
        34                         -0.0411950              -1.1210
        35                         -0.0156937              -0.4270
        36                         -0.0105996              -0.2884
        37                         -0.0025899              -0.0705
       ...                                ...                  ...
        52                          0.4650405              12.6544
      -------------------------------------------------------------
                  HL-Gap            0.1763929 Eh            4.7999 eV

     #   Z          covCN         q      C6AA      α(0)
     1   7 N        3.481    -0.150    24.238     7.312
     2   6 C        3.734    -0.029    21.174     6.567
     3   6 C        3.810    -0.095    22.297     6.721
     4   6 C        2.948    -0.005    28.137     8.700
     5   6 C        2.897    -0.064    29.585     8.918
     6   6 C        3.808    -0.062    21.678     6.628
     7   6 C        3.807    -0.065    21.734     6.637
     8   6 C        3.806    -0.062    21.679     6.628
     9   6 C        3.811    -0.072    21.866     6.656
    10   1 H        0.859     0.258     0.854     1.448
    11   1 H        0.859     0.258     0.852     1.446
    12   1 H        0.854     0.276     0.789     1.392
    13   1 H        0.925     0.101     1.772     2.082
    14   1 H        0.924     0.102     1.770     2.081
    15   1 H        0.924     0.069     2.095     2.263
    16   1 H        0.925     0.094     1.844     2.123
    17   1 H        0.925     0.031     2.570     2.507
    18   1 H        0.924     0.047     2.358     2.402
    19   1 H        0.924     0.062     2.180     2.309
    20   1 H        0.925     0.050     2.316     2.380
    21   1 H        0.924     0.050     2.314     2.379
    22   1 H        0.924     0.033     2.547     2.496
    23   1 H        0.925     0.053     2.288     2.366
    24   1 H        0.924     0.045     2.381     2.413
    25   1 H        0.924     0.072     2.062     2.246

Wiberg/Mayer (AO) data.
largest (>0.10) Wiberg bond orders for each atom

     #   Z sym  total        # sym  WBO       # sym  WBO       # sym  WBO
 ---------------------------------------------------------------------------
     1   7 N    3.658 --     2 C    0.940    10 H    0.920    11 H    0.919
                            12 H    0.808
     2   6 C    3.904 --     3 C    0.991    13 H    0.969    14 H    0.967
                             1 N    0.940
     3   6 C    3.980 --     4 C    1.004     2 C    0.991    15 H    0.969
                            16 H    0.961
     4   6 C    3.985 --     5 C    1.797     9 C    1.021     3 C    1.004
     5   6 C    3.990 --     4 C    1.797     6 C    1.030    17 H    0.957
     6   6 C    3.996 --     5 C    1.030     7 C    1.006    19 H    0.960
                            18 H    0.953
     7   6 C    3.995 --     8 C    1.009     6 C    1.006    21 H    0.977
                            20 H    0.976
     8   6 C    3.996 --     7 C    1.009     9 C    1.004    22 H    0.978
                            23 H    0.976
     9   6 C    3.995 --     4 C    1.021     8 C    1.004    24 H    0.963
                            25 H    0.947
    10   1 H    0.934 --     1 N    0.920
    11   1 H    0.933 --     1 N    0.919
    12   1 H    0.924 --     1 N    0.808
    13   1 H    0.989 --     2 C    0.969
    14   1 H    0.990 --     2 C    0.967
    15   1 H    0.995 --     3 C    0.969
    16   1 H    0.991 --     3 C    0.961
    17   1 H    0.999 --     5 C    0.957
    18   1 H    0.998 --     6 C    0.953
    19   1 H    0.996 --     6 C    0.960
    20   1 H    0.997 --     7 C    0.976
    21   1 H    0.997 --     7 C    0.977
    22   1 H    0.999 --     8 C    0.978
    23   1 H    0.997 --     8 C    0.976
    24   1 H    0.998 --     9 C    0.963
    25   1 H    0.995 --     9 C    0.947
 ---------------------------------------------------------------------------

molecular dipole:
                 x           y           z       tot (Debye)
 q only:        6.430      -2.588      -5.577
   full:        6.371      -2.771      -5.724      22.881

           -------------------------------------------------
          | TOTAL ENERGY              -27.780078062512 Eh   |
          | GRADIENT NORM               0.000503888089 Eh/α |
          | HOMO-LUMO GAP               4.799896213425 eV   |
           -------------------------------------------------

 * finished run on 2023/01/23 at 14:10:25.065
