   * xtb version 6.5.1 (fef0646) compiled by 'conda@b96dff2e9fd6' on 2023-01-04
          program call               : xtb init.xyz --opt -c 0 -u 0 -P 16 --input xtb.inp

   ID    Z sym.   atoms
    1    7 N      1
    2    6 C      2-10
    3   17 Cl     11
    4    1 H      12-23

          :  Hamiltonian                  GFN2-xTB          :
 * total energy  :   -32.7826595 Eh     change       -0.5204726E-10 Eh
 * total energy  :   -32.7849361 Eh     change       -0.2276678E-02 Eh
 * total energy  :   -32.7877694 Eh     change       -0.2833236E-02 Eh
 * total energy  :   -32.7881694 Eh     change       -0.3999801E-03 Eh
 * total energy  :   -32.7883922 Eh     change       -0.2228563E-03 Eh
 * total energy  :   -32.7885503 Eh     change       -0.1581202E-03 Eh
 * total energy  :   -32.7890472 Eh     change       -0.4969091E-03 Eh
 * total energy  :   -32.7902102 Eh     change       -0.1162934E-02 Eh
 * total energy  :   -32.7927950 Eh     change       -0.2584864E-02 Eh
 * total energy  :   -32.7966486 Eh     change       -0.3853573E-02 Eh
 * total energy  :   -32.8149605 Eh     change       -0.1147476E-04 Eh
 * total energy  :   -32.8149719 Eh     change       -0.1137337E-04 Eh
 * total energy  :   -32.8149865 Eh     change       -0.1459880E-04 Eh
 * total energy  :   -32.8150012 Eh     change       -0.1472209E-04 Eh
 * total energy  :   -32.8150186 Eh     change       -0.1733496E-04 Eh
 * total energy  :   -32.8150274 Eh     change       -0.8802549E-05 Eh
 * total energy  :   -32.8150454 Eh     change       -0.1799724E-04 Eh
 * total energy  :   -32.8150464 Eh     change       -0.1046585E-05 Eh
 * total energy  :   -32.8150504 Eh     change       -0.4031873E-05 Eh
   *** GEOMETRY OPTIMIZATION CONVERGED AFTER 46 ITERATIONS ***

 final structure:
================
23
 xtb: 6.5.1 (fef0646)
N            1.44162052084029       -0.64266414494954       -0.27342781482534
C            2.75307558400639       -0.10954665195686        0.11810484010626
C            3.14765216146603        1.00113873903115       -0.81708479375396
C            2.63112198269566        2.28080389047065       -0.65071205957002
C            2.96751471139637        3.29475249539200       -1.52356096293417
C            3.83243246250634        3.06296967336757       -2.59438661957713
C            4.22500944484624        4.10088729921168       -3.54007202137572
C            3.96131862833366        5.39848733325237       -3.44624349271396
C            4.33768688789270        1.77288595288774       -2.75960000557912
C            4.00138515127158        0.75856741489891       -1.88483147032555
Cl          -0.75104630800845        1.26459452459103        0.11645710692370
H            1.18529586473864       -1.43645548640492        0.30382123565848
H            1.45186116546953       -0.93263715864062       -1.24591244383730
H            0.30193066563217        0.40842090456327       -0.07975677548063
H            3.52710677422009       -0.88977897239769        0.11076772395459
H            2.65559714690501        0.27298856216614        1.13705142625789
H            1.95448509071722        2.47594544422778        0.16643869233183
H            2.54612647573501        4.27635776806117       -1.37573661488605
H            4.79898822621926        3.74313518703717       -4.38663354650187
H            3.40883974055381        5.82303274873080       -2.62621449763718
H            4.29834132441914        6.09369438924303       -4.19595491157086
H            5.00637946620401        1.56660758300488       -3.58353663136062
H            4.41155683194098       -0.23151749579861       -2.03154636328625

          :  Hamiltonian                  GFN2-xTB          :
         :: total energy             -32.815050439928 Eh    ::
         :: gradient norm              0.000374292105 Eh/a0 ::
         :: HOMO-LUMO gap              3.567196722602 eV    ::
         :: SCC energy               -33.315725849261 Eh    ::
         :: -> dispersion             -0.019729957308 Eh    ::
         :: repulsion energy           0.500636813895 Eh    ::

    * Orbital Energies and Occupations

         #    Occupation            Energy/Eh            Energy/eV
      -------------------------------------------------------------
         1        2.0000           -1.0164599             -27.6593
       ...           ...                  ...                  ...
        18        2.0000           -0.4843743             -13.1805
        19        2.0000           -0.4803175             -13.0701
        20        2.0000           -0.4751139             -12.9285
        21        2.0000           -0.4669257             -12.7057
        22        2.0000           -0.4449810             -12.1085
        23        2.0000           -0.4370129             -11.8917
        24        2.0000           -0.4291095             -11.6767
        25        2.0000           -0.4206097             -11.4454
        26        2.0000           -0.4087699             -11.1232
        27        2.0000           -0.3996717             -10.8756
        28        2.0000           -0.3934947             -10.7075
        29        2.0000           -0.3932543             -10.7010
        30        2.0000           -0.3869942             -10.5306 (HOMO)
        31                         -0.2559021              -6.9635 (LUMO)
        32                         -0.2258682              -6.1462
        33                         -0.1790583              -4.8724
        34                         -0.0859695              -2.3394
        35                         -0.0530129              -1.4426
        36                          0.0331988               0.9034
        37                          0.0674053               1.8342
        38                          0.0678604               1.8466
        39                          0.0731816               1.9914
        40                          0.0736033               2.0028
        41                          0.0858610               2.3364
       ...                                ...                  ...
        61                          0.6802162              18.5096
      -------------------------------------------------------------
                  HL-Gap            0.1310921 Eh            3.5672 eV

     #   Z          covCN         q      C6AA      α(0)
     1   7 N        2.693    -0.304    27.821     7.834
     2   6 C        3.737     0.004    20.593     6.476
     3   6 C        2.972     0.001    27.997     8.679
     4   6 C        2.922    -0.035    28.865     8.811
     5   6 C        2.923    -0.030    28.744     8.792
     6   6 C        2.971     0.015    27.667     8.628
     7   6 C        2.896    -0.030    28.748     8.791
     8   6 C        2.837    -0.084    30.106     8.992
     9   6 C        2.928    -0.036    28.888     8.814
    10   6 C        2.921    -0.039    28.966     8.826
    11  17 Cl       0.838    -0.483   115.072    16.410
    12   1 H        0.860     0.167     1.294     1.782
    13   1 H        0.860     0.167     1.293     1.781
    14   1 H        0.899     0.331     0.625     1.237
    15   1 H        0.923     0.028     2.620     2.531
    16   1 H        0.924     0.056     2.251     2.346
    17   1 H        0.926     0.054     2.265     2.354
    18   1 H        0.926     0.043     2.405     2.425
    19   1 H        0.925     0.034     2.524     2.485
    20   1 H        0.926     0.042     2.417     2.431
    21   1 H        0.926     0.039     2.466     2.455
    22   1 H        0.926     0.033     2.549     2.497
    23   1 H        0.925     0.027     2.633     2.537

Wiberg/Mayer (AO) data.
largest (>0.10) Wiberg bond orders for each atom

     #   Z sym  total        # sym  WBO       # sym  WBO       # sym  WBO
 ---------------------------------------------------------------------------
     1   7 N    3.235 --     2 C    0.993    13 H    0.959    12 H    0.958
                            14 H    0.205
     2   6 C    3.973 --     3 C    1.004     1 N    0.993    15 H    0.971
                            16 H    0.970
     3   6 C    3.988 --    10 C    1.412     4 C    1.399     2 C    1.004
     4   6 C    3.990 --     5 C    1.468     3 C    1.399    17 H    0.966
                             9 C    0.104
     5   6 C    3.992 --     4 C    1.468     6 C    1.370    18 H    0.965
                            10 C    0.104
     6   6 C    3.989 --     9 C    1.377     5 C    1.370     7 C    1.091
     7   6 C    3.991 --     8 C    1.901     6 C    1.091    19 H    0.964
     8   6 C    3.990 --     7 C    1.901    21 H    0.978    20 H    0.973
     9   6 C    3.992 --    10 C    1.456     6 C    1.377    22 H    0.969
                             4 C    0.104
    10   6 C    3.992 --     9 C    1.456     3 C    1.412    23 H    0.969
                             5 C    0.104
    11  17 Cl   0.770 --    14 H    0.681
    12   1 H    0.971 --     1 N    0.958
    13   1 H    0.972 --     1 N    0.959
    14   1 H    0.890 --    11 Cl   0.681     1 N    0.205
    15   1 H    0.999 --     2 C    0.971
    16   1 H    0.996 --     2 C    0.970
    17   1 H    0.997 --     4 C    0.966
    18   1 H    0.998 --     5 C    0.965
    19   1 H    0.998 --     7 C    0.964
    20   1 H    0.998 --     8 C    0.973
    21   1 H    0.998 --     8 C    0.978
    22   1 H    0.999 --     9 C    0.969
    23   1 H    0.999 --    10 C    0.969
 ---------------------------------------------------------------------------

molecular dipole:
                 x           y           z       tot (Debye)
 q only:        1.523      -0.964      -0.265
   full:        1.348      -1.076      -0.299       4.449

           -------------------------------------------------
          | TOTAL ENERGY              -32.815050439928 Eh   |
          | GRADIENT NORM               0.000374292105 Eh/α |
          | HOMO-LUMO GAP               3.567196722602 eV   |
           -------------------------------------------------

 * finished run on 2023/01/23 at 18:50:07.494
