   * xtb version 6.5.1 (fef0646) compiled by 'conda@b96dff2e9fd6' on 2023-01-04
          program call               : xtb init.xyz --opt -c 0 -u 0 -P 16 --alpb water

   ID    Z sym.   atoms
    1    7 N      1
    2    6 C      2-10
    3   17 Cl     11
    4    1 H      12-23

      * Solvation model:               ALPB
        Solvent                        water
        Solvent mass                       1.8000E+01 g/mol
          :  Hamiltonian                  GFN2-xTB          :
 * total energy  :   -32.8505022 Eh     change       -0.5149090E-09 Eh
 * total energy  :   -32.8542814 Eh     change       -0.3779140E-02 Eh
 * total energy  :   -32.8553622 Eh     change       -0.1080834E-02 Eh
 * total energy  :   -32.8558882 Eh     change       -0.5259944E-03 Eh
 * total energy  :   -32.8563594 Eh     change       -0.4711709E-03 Eh
 * total energy  :   -32.8567067 Eh     change       -0.3473831E-03 Eh
 * total energy  :   -32.8568926 Eh     change       -0.1858482E-03 Eh
 * total energy  :   -32.8569954 Eh     change       -0.1027791E-03 Eh
 * total energy  :   -32.8570756 Eh     change       -0.8021946E-04 Eh
 * total energy  :   -32.8571263 Eh     change       -0.5067847E-04 Eh
 * total energy  :   -32.8579413 Eh     change       -0.2129975E-04 Eh
 * total energy  :   -32.8579567 Eh     change       -0.1544458E-04 Eh
 * total energy  :   -32.8579726 Eh     change       -0.1590125E-04 Eh
 * total energy  :   -32.8579816 Eh     change       -0.8961904E-05 Eh
 * total energy  :   -32.8579927 Eh     change       -0.1111865E-04 Eh
 * total energy  :   -32.8580004 Eh     change       -0.7669799E-05 Eh
 * total energy  :   -32.8580074 Eh     change       -0.6975407E-05 Eh
 * total energy  :   -32.8580161 Eh     change       -0.8716211E-05 Eh
 * total energy  :   -32.8580206 Eh     change       -0.4519323E-05 Eh
   *** GEOMETRY OPTIMIZATION CONVERGED AFTER 29 ITERATIONS ***

 final structure:
================
23
 xtb: 6.5.1 (fef0646)
N            2.99294640245536       -0.82485819601749       -0.77725249904618
C            2.34061499552052        0.30781038595990       -0.08156887494780
C            2.80604607118034        0.43271624754587        1.34384592838748
C            3.21545887089470        1.66151641687721        1.84757042326125
C            3.62357757624471        1.78808458043840        3.16065312736604
C            3.64300662793955        0.68241689405871        4.01110263628262
C            4.06292036702194        0.76029563915325        5.40544390486498
C            4.27305843184753        1.86768178990225        6.10757962294406
C            3.24161661821471       -0.55089839030215        3.49240935653937
C            2.82159289636841       -0.67618335056142        2.18309293247555
Cl           1.83856852936760       -3.55159142632870       -0.00223053550791
H            2.79943531294193       -0.79521705030995       -1.78085415695099
H            2.62308314399348       -1.74705247390752       -0.43447206236924
H            4.00339075177089       -0.81681960479765       -0.61871557889681
H            1.26228824965937        0.13670839490707       -0.09367461901426
H            2.55958869564450        1.23322272131108       -0.61575215656080
H            3.21187222766010        2.53202487989875        1.20913275187007
H            3.94254751255219        2.75113532051575        3.52617349785095
H            4.18932814625573       -0.20068532851231        5.89032514159528
H            4.14578253625215        2.85296091504274        5.69338618926484
H            4.57637118641581        1.82532987491927        7.13933813012990
H            3.25038211719112       -1.42224192126124        4.13250014452108
H            2.50194273260812       -1.64021631853094        1.81590669593871

          :  Hamiltonian                  GFN2-xTB          :
         :: total energy             -32.858020609632 Eh    ::
         :: gradient norm              0.000454732331 Eh/a0 ::
         :: HOMO-LUMO gap              3.566080326253 eV    ::
         :: SCC energy               -33.366159498841 Eh    ::
         :: -> dispersion             -0.018883166288 Eh    ::
         :: -> Gsolv                  -0.073349439836 Eh    ::
         :: repulsion energy           0.508168298249 Eh    ::

    * Orbital Energies and Occupations

         #    Occupation            Energy/Eh            Energy/eV
      -------------------------------------------------------------
         1        2.0000           -1.0075976             -27.4181
       ...           ...                  ...                  ...
        18        2.0000           -0.4757672             -12.9463
        19        2.0000           -0.4708294             -12.8119
        20        2.0000           -0.4668969             -12.7049
        21        2.0000           -0.4620281             -12.5724
        22        2.0000           -0.4389188             -11.9436
        23        2.0000           -0.4278497             -11.6424
        24        2.0000           -0.4214434             -11.4681
        25        2.0000           -0.4134425             -11.2503
        26        2.0000           -0.4039816             -10.9929
        27        2.0000           -0.4011788             -10.9166
        28        2.0000           -0.4008430             -10.9075
        29        2.0000           -0.3994883             -10.8706
        30        2.0000           -0.3799187             -10.3381 (HOMO)
        31                         -0.2488676              -6.7720 (LUMO)
        32                         -0.2181327              -5.9357
        33                         -0.1725711              -4.6959
        34                         -0.0793169              -2.1583
        35                         -0.0165833              -0.4513
        36                          0.0792605               2.1568
        37                          0.0939425               2.5563
        38                          0.1004171               2.7325
        39                          0.1119961               3.0476
        40                          0.1162750               3.1640
        41                          0.1165499               3.1715
       ...                                ...                  ...
        61                          0.6864685              18.6798
      -------------------------------------------------------------
                  HL-Gap            0.1310510 Eh            3.5661 eV

     #   Z          covCN         q      C6AA      α(0)
     1   7 N        3.483    -0.167    24.604     7.367
     2   6 C        3.737    -0.034    21.272     6.582
     3   6 C        2.970     0.008    27.831     8.653
     4   6 C        2.921    -0.045    29.125     8.850
     5   6 C        2.923    -0.038    28.940     8.822
     6   6 C        2.970     0.011    27.773     8.644
     7   6 C        2.895    -0.034    28.855     8.807
     8   6 C        2.837    -0.096    30.398     9.035
     9   6 C        2.927    -0.035    28.881     8.813
    10   6 C        2.920    -0.041    29.024     8.835
    11  17 Cl       0.044    -0.946   124.832    17.004
    12   1 H        0.859     0.306     0.695     1.306
    13   1 H        0.901     0.294     0.729     1.336
    14   1 H        0.859     0.298     0.720     1.329
    15   1 H        0.924     0.110     1.696     2.036
    16   1 H        0.924     0.113     1.667     2.019
    17   1 H        0.926     0.056     2.241     2.341
    18   1 H        0.926     0.045     2.389     2.417
    19   1 H        0.925     0.032     2.564     2.504
    20   1 H        0.926     0.047     2.352     2.398
    21   1 H        0.926     0.040     2.446     2.446
    22   1 H        0.925     0.024     2.680     2.560
    23   1 H        0.926     0.053     2.278     2.360

Wiberg/Mayer (AO) data.
largest (>0.10) Wiberg bond orders for each atom

     #   Z sym  total        # sym  WBO       # sym  WBO       # sym  WBO
 ---------------------------------------------------------------------------
     1   7 N    3.644 --     2 C    0.964    14 H    0.897    12 H    0.892
                            13 H    0.834
     2   6 C    3.931 --     3 C    1.011     1 N    0.964    16 H    0.964
                            15 H    0.953
     3   6 C    3.988 --     4 C    1.405    10 C    1.401     2 C    1.011
     4   6 C    3.990 --     5 C    1.461     3 C    1.405    17 H    0.966
                             9 C    0.102
     5   6 C    3.991 --     4 C    1.461     6 C    1.375    18 H    0.965
                            10 C    0.105
     6   6 C    3.990 --     5 C    1.375     9 C    1.373     7 C    1.090
     7   6 C    3.991 --     8 C    1.902     6 C    1.090    19 H    0.964
     8   6 C    3.989 --     7 C    1.902    21 H    0.978    20 H    0.972
     9   6 C    3.992 --    10 C    1.463     6 C    1.373    22 H    0.969
                             4 C    0.102
    10   6 C    3.990 --     9 C    1.463     3 C    1.401    23 H    0.963
                             5 C    0.105
    11  17 Cl   0.105
    12   1 H    0.906 --     1 N    0.892
    13   1 H    0.914 --     1 N    0.834
    14   1 H    0.911 --     1 N    0.897
    15   1 H    0.987 --     2 C    0.953
    16   1 H    0.987 --     2 C    0.964
    17   1 H    0.996 --     4 C    0.966
    18   1 H    0.998 --     5 C    0.965
    19   1 H    0.999 --     7 C    0.964
    20   1 H    0.998 --     8 C    0.972
    21   1 H    0.998 --     8 C    0.978
    22   1 H    0.999 --     9 C    0.969
    23   1 H    0.997 --    10 C    0.963
 ---------------------------------------------------------------------------

molecular dipole:
                 x           y           z       tot (Debye)
 q only:        1.907       5.102      -1.461
   full:        1.683       4.261      -1.299      12.103

           -------------------------------------------------
          | TOTAL ENERGY              -32.858020609632 Eh   |
          | GRADIENT NORM               0.000454732331 Eh/α |
          | HOMO-LUMO GAP               3.566080326253 eV   |
           -------------------------------------------------

 * finished run on 2023/01/24 at 15:15:35.249
