   * xtb version 6.5.1 (fef0646) compiled by 'conda@b96dff2e9fd6' on 2023-01-04
          program call               : xtb init.xyz --opt -c 0 -u 0 -P 16 --alpb water

   ID    Z sym.   atoms
    1    7 N      1
    2    6 C      2-4
    3   17 Cl     5
    4    1 H      6-15

      * Solvation model:               ALPB
        Solvent                        water
        Solvent mass                       1.8000E+01 g/mol
          :  Hamiltonian                  GFN2-xTB          :
 * total energy  :   -19.0242967 Eh     change       -0.2678888E-09 Eh
 * total energy  :   -19.0279626 Eh     change       -0.3665873E-02 Eh
 * total energy  :   -19.0288088 Eh     change       -0.8462595E-03 Eh
 * total energy  :   -19.0289887 Eh     change       -0.1798810E-03 Eh
 * total energy  :   -19.0290441 Eh     change       -0.5542418E-04 Eh
 * total energy  :   -19.0290990 Eh     change       -0.5490852E-04 Eh
 * total energy  :   -19.0291361 Eh     change       -0.3702833E-04 Eh
 * total energy  :   -19.0291864 Eh     change       -0.5031778E-04 Eh
 * total energy  :   -19.0292513 Eh     change       -0.6497173E-04 Eh
 * total energy  :   -19.0292870 Eh     change       -0.3568649E-04 Eh
 * total energy  :   -19.0293107 Eh     change       -0.2366909E-04 Eh
 * total energy  :   -19.0293246 Eh     change       -0.1384849E-04 Eh
 * total energy  :   -19.0293323 Eh     change       -0.7795315E-05 Eh
 * total energy  :   -19.0293380 Eh     change       -0.5625297E-05 Eh
 * total energy  :   -19.0293428 Eh     change       -0.4829339E-05 Eh
   *** GEOMETRY OPTIMIZATION CONVERGED AFTER 15 ITERATIONS ***

 final structure:
================
15
 xtb: 6.5.1 (fef0646)
N            0.96649603666362        0.15702911447861       -0.03192538707593
C            2.44300219383094        0.17909249319870       -0.01226673976191
C            2.98194685416820        1.52472324504397       -0.48739328926872
C            4.50551017049971        1.54550969401814       -0.43831211129569
Cl          -0.08371031442629       -2.59328692388551        0.75295899365773
H            0.60648469428885       -0.78767267644920        0.25826038761947
H            0.61207525055729        0.34042573422830       -0.97375500864089
H            0.58084215528422        0.84921162136433        0.61450704913697
H            2.80879567997827       -0.62322991663726       -0.65271993766690
H            2.77919175369197       -0.02680551651062        1.00369706613115
H            2.59547460636364        2.32323278646144        0.14692332677603
H            2.65757937087314        1.71143405380526       -1.51178831912427
H            4.85884053554586        1.38998940009961        0.57789368293695
H            4.88533853952384        2.50083730523226       -0.78977233783748
H            4.92011247315650        0.76077958555221       -1.06612737558678

          :  Hamiltonian                  GFN2-xTB          :
         :: total energy             -19.029342803109 Eh    ::
         :: gradient norm              0.000268099289 Eh/a0 ::
         :: HOMO-LUMO gap             10.201803619100 eV    ::
         :: SCC energy               -19.233295529408 Eh    ::
         :: -> dispersion             -0.006563432096 Eh    ::
         :: -> Gsolv                  -0.071011391127 Eh    ::
         :: repulsion energy           0.203961223124 Eh    ::

    * Orbital Energies and Occupations

         #    Occupation            Energy/Eh            Energy/eV
      -------------------------------------------------------------
         1        2.0000           -1.0069682             -27.4010
       ...           ...                  ...                  ...
         5        2.0000           -0.5756285             -15.6636
         6        2.0000           -0.5702880             -15.5183
         7        2.0000           -0.5475258             -14.8989
         8        2.0000           -0.5372278             -14.6187
         9        2.0000           -0.5057435             -13.7620
        10        2.0000           -0.4786221             -13.0240
        11        2.0000           -0.4601652             -12.5217
        12        2.0000           -0.4584007             -12.4737
        13        2.0000           -0.4392117             -11.9516
        14        2.0000           -0.4265194             -11.6062
        15        2.0000           -0.4040578             -10.9950
        16        2.0000           -0.4010727             -10.9137
        17        2.0000           -0.4010471             -10.9130 (HOMO)
        18                         -0.0261378              -0.7112 (LUMO)
        19                          0.0770822               2.0975
        20                          0.0899437               2.4475
        21                          0.1159131               3.1542
        22                          0.1163268               3.1654
        23                          0.1171502               3.1878
        24                          0.1188536               3.2342
        25                          0.1188682               3.2346
        26                          0.1221352               3.3235
        27                          0.1453358               3.9548
        28                          0.1633589               4.4452
       ...                                ...                  ...
        35                          0.3062053               8.3323
      -------------------------------------------------------------
                  HL-Gap            0.3749094 Eh           10.2018 eV

     #   Z          covCN         q      C6AA      α(0)
     1   7 N        3.483    -0.167    24.592     7.365
     2   6 C        3.733    -0.024    21.098     6.556
     3   6 C        3.801    -0.077    21.967     6.673
     4   6 C        3.753    -0.122    22.905     6.825
     5  17 Cl       0.056    -0.946   124.850    17.005
     6   1 H        0.912     0.293     0.731     1.337
     7   1 H        0.859     0.296     0.725     1.334
     8   1 H        0.859     0.297     0.723     1.332
     9   1 H        0.925     0.093     1.853     2.129
    10   1 H        0.925     0.094     1.840     2.121
    11   1 H        0.924     0.064     2.153     2.294
    12   1 H        0.924     0.063     2.167     2.302
    13   1 H        0.925     0.044     2.393     2.419
    14   1 H        0.925     0.050     2.324     2.384
    15   1 H        0.925     0.044     2.402     2.423

Wiberg/Mayer (AO) data.
largest (>0.10) Wiberg bond orders for each atom

     #   Z sym  total        # sym  WBO       # sym  WBO       # sym  WBO
 ---------------------------------------------------------------------------
     1   7 N    3.648 --     2 C    0.967     8 H    0.897     7 H    0.897
                             6 H    0.832
     2   6 C    3.929 --     3 C    1.008     9 H    0.969    10 H    0.968
                             1 N    0.967
     3   6 C    3.991 --     4 C    1.018     2 C    1.008    12 H    0.975
                            11 H    0.974
     4   6 C    3.994 --     3 C    1.018    15 H    0.987    13 H    0.987
                            14 H    0.986
     5  17 Cl   0.104
     6   1 H    0.914 --     1 N    0.832
     7   1 H    0.912 --     1 N    0.897
     8   1 H    0.912 --     1 N    0.897
     9   1 H    0.991 --     2 C    0.969
    10   1 H    0.991 --     2 C    0.968
    11   1 H    0.996 --     3 C    0.974
    12   1 H    0.996 --     3 C    0.975
    13   1 H    0.998 --     4 C    0.987
    14   1 H    0.997 --     4 C    0.986
    15   1 H    0.998 --     4 C    0.987
 ---------------------------------------------------------------------------

molecular dipole:
                 x           y           z       tot (Debye)
 q only:        2.147       5.016      -1.432
   full:        1.774       4.374      -1.255      12.415

           -------------------------------------------------
          | TOTAL ENERGY              -19.029342803109 Eh   |
          | GRADIENT NORM               0.000268099289 Eh/α |
          | HOMO-LUMO GAP              10.201803619100 eV   |
           -------------------------------------------------

 * finished run on 2023/01/24 at 15:26:07.801
