   * xtb version 6.5.1 (fef0646) compiled by 'conda@b96dff2e9fd6' on 2023-01-04
          program call               : xtb init.xyz --opt -c 1 -u 0 -P 16

   ID    Z sym.   atoms
    1    7 N      1
    2    6 C      2-13
    3    1 H      14-27

          :  Hamiltonian                  GFN2-xTB          :
 * total energy  :   -35.3185563 Eh     change       -0.3144152E-09 Eh
 * total energy  :   -35.3226340 Eh     change       -0.4077663E-02 Eh
 * total energy  :   -35.3236229 Eh     change       -0.9889371E-03 Eh
 * total energy  :   -35.3237526 Eh     change       -0.1297125E-03 Eh
 * total energy  :   -35.3238256 Eh     change       -0.7301855E-04 Eh
 * total energy  :   -35.3238558 Eh     change       -0.3011499E-04 Eh
 * total energy  :   -35.3238841 Eh     change       -0.2835482E-04 Eh
 * total energy  :   -35.3239367 Eh     change       -0.5258996E-04 Eh
 * total energy  :   -35.3239767 Eh     change       -0.3998866E-04 Eh
 * total energy  :   -35.3240185 Eh     change       -0.4176057E-04 Eh
 * total energy  :   -35.3247953 Eh     change       -0.2260101E-03 Eh
 * total energy  :   -35.3249983 Eh     change       -0.2030232E-03 Eh
 * total energy  :   -35.3251526 Eh     change       -0.1543066E-03 Eh
 * total energy  :   -35.3251539 Eh     change       -0.1236643E-05 Eh
 * total energy  :   -35.3252499 Eh     change       -0.9601367E-04 Eh
 * total energy  :   -35.3252674 Eh     change       -0.1747525E-04 Eh
 * total energy  :   -35.3252796 Eh     change       -0.1225275E-04 Eh
 * total energy  :   -35.3252912 Eh     change       -0.1161526E-04 Eh
 * total energy  :   -35.3252962 Eh     change       -0.4950496E-05 Eh
   *** GEOMETRY OPTIMIZATION CONVERGED AFTER 24 ITERATIONS ***

 final structure:
================
27
 xtb: 6.5.1 (fef0646)
N            1.24937613513724       -0.77272398027939       -0.86225826644199
C            2.30584662253029       -0.06268409781470       -0.03056129453038
C            3.48002423057605       -1.00789049848223        0.15506950248889
C            2.66833680905217        1.21768499931328       -0.73621057955052
C            3.21771595899705        1.16957669993551       -2.03577882921865
C            3.55657772301090        2.32179978795516       -2.68509815725982
C            2.46682411541083        2.42973463861661       -0.12739940274339
C            2.80886954920925        3.63477464852578       -0.77211684716070
C            3.36495708930255        3.58097667059338       -2.07911837245478
C            3.70962838001680        4.78491187591905       -2.72589390339538
C            3.50963237329776        5.98736928509435       -2.10578962336004
C            2.95716212466426        6.04046458200937       -0.81563725087186
C            2.61369650031833        4.89051910074304       -0.16066026043614
H            1.03104067533249       -1.69831449806575       -0.47365703929287
H            1.62344734744683       -0.88501774307375       -1.81492007021427
H            0.39196193692667       -0.21062090365085       -0.91546719919023
H            1.85378555231647        0.16244892573926        0.93911292804372
H            3.92701020887450       -1.28249552380887       -0.79649892027878
H            3.18302984976631       -1.90956114462578        0.68570263131954
H            4.24496825172831       -0.51069234482192        0.74463224399068
H            3.39377004367863        0.21780438813652       -2.51946977980880
H            3.98260416150961        2.28226397932408       -3.67617020637070
H            2.05106106485506        2.47864940962600        0.86912701391691
H            4.13530915288841        4.73890585660659       -3.71706838822544
H            3.77609753997294        6.90665906205200       -2.60406618450562
H            2.80675620990878        6.99932599078875       -0.34409790419832
H            2.19080039327166        4.92677083364311        0.83238415974874

          :  Hamiltonian                  GFN2-xTB          :
         :: total energy             -35.325296189826 Eh    ::
         :: gradient norm              0.000674693044 Eh/a0 ::
         :: HOMO-LUMO gap              3.120876952729 eV    ::
         :: SCC energy               -35.967131129114 Eh    ::
         :: -> dispersion             -0.023978473912 Eh    ::
         :: repulsion energy           0.641802323433 Eh    ::

    * Orbital Energies and Occupations

         #    Occupation            Energy/Eh            Energy/eV
      -------------------------------------------------------------
         1        2.0000           -0.8766154             -23.8539
       ...           ...                  ...                  ...
        21        2.0000           -0.6079156             -16.5422
        22        2.0000           -0.6067551             -16.5106
        23        2.0000           -0.5991884             -16.3047
        24        2.0000           -0.5889261             -16.0255
        25        2.0000           -0.5815370             -15.8244
        26        2.0000           -0.5765869             -15.6897
        27        2.0000           -0.5673888             -15.4394
        28        2.0000           -0.5572884             -15.1646
        29        2.0000           -0.5425155             -14.7626
        30        2.0000           -0.5272332             -14.3467
        31        2.0000           -0.5222704             -14.2117
        32        2.0000           -0.5139193             -13.9845
        33        2.0000           -0.4919799             -13.3875 (HOMO)
        34                         -0.3772898             -10.2666 (LUMO)
        35                         -0.3504310              -9.5357
        36                         -0.3019689              -8.2170
        37                         -0.2710939              -7.3768
        38                         -0.2361943              -6.4272
        39                         -0.1715380              -4.6678
        40                         -0.1494532              -4.0668
        41                         -0.0898928              -2.4461
        42                         -0.0804541              -2.1893
        43                         -0.0605935              -1.6488
        44                         -0.0229661              -0.6249
       ...                                ...                  ...
        66                          0.5872626              15.9802
      -------------------------------------------------------------
                  HL-Gap            0.1146901 Eh            3.1209 eV

     #   Z          covCN         q      C6AA      α(0)
     1   7 N        3.484    -0.143    24.088     7.289
     2   6 C        3.784     0.025    20.178     6.398
     3   6 C        3.755    -0.137    23.193     6.867
     4   6 C        2.969    -0.023    28.584     8.770
     5   6 C        2.917    -0.051    29.266     8.871
     6   6 C        2.917    -0.028    28.703     8.785
     7   6 C        2.922    -0.041    29.024     8.835
     8   6 C        2.986     0.019    27.584     8.615
     9   6 C        2.987     0.020    27.565     8.612
    10   6 C        2.917    -0.029    28.728     8.789
    11   6 C        2.916    -0.017    28.432     8.744
    12   6 C        2.916    -0.018    28.450     8.747
    13   6 C        2.918    -0.031    28.773     8.796
    14   1 H        0.859     0.263     0.833     1.430
    15   1 H        0.859     0.270     0.809     1.409
    16   1 H        0.859     0.262     0.839     1.435
    17   1 H        0.924     0.089     1.893     2.152
    18   1 H        0.925     0.072     2.060     2.245
    19   1 H        0.925     0.066     2.135     2.285
    20   1 H        0.925     0.096     1.823     2.111
    21   1 H        0.925     0.025     2.659     2.550
    22   1 H        0.926     0.055     2.255     2.348
    23   1 H        0.926     0.043     2.403     2.424
    24   1 H        0.926     0.052     2.293     2.368
    25   1 H        0.926     0.058     2.228     2.334
    26   1 H        0.926     0.057     2.238     2.340
    27   1 H        0.926     0.048     2.347     2.395

Wiberg/Mayer (AO) data.
largest (>0.10) Wiberg bond orders for each atom

     #   Z sym  total        # sym  WBO       # sym  WBO       # sym  WBO
 ---------------------------------------------------------------------------
     1   7 N    3.663 --    16 H    0.917    14 H    0.913    15 H    0.902
                             2 C    0.877
     2   6 C    3.888 --     3 C    1.010     4 C    0.993    17 H    0.960
                             1 N    0.877
     3   6 C    3.978 --     2 C    1.010    19 H    0.979    18 H    0.978
                            20 H    0.970
     4   6 C    3.971 --     7 C    1.517     5 C    1.287     2 C    0.993
     5   6 C    3.990 --     6 C    1.561     4 C    1.287    21 H    0.962
     6   6 C    3.990 --     5 C    1.561     9 C    1.279    22 H    0.966
                             7 C    0.109
     7   6 C    3.990 --     4 C    1.517     8 C    1.287    23 H    0.964
                             6 C    0.109
     8   6 C    3.990 --     7 C    1.287    13 C    1.279     9 C    1.243
     9   6 C    3.990 --    10 C    1.284     6 C    1.279     8 C    1.243
    10   6 C    3.990 --    11 C    1.554     9 C    1.284    24 H    0.967
                            13 C    0.116
    11   6 C    3.987 --    10 C    1.554    12 C    1.320    25 H    0.969
    12   6 C    3.990 --    13 C    1.556    11 C    1.320    26 H    0.969
    13   6 C    3.989 --    12 C    1.556     8 C    1.279    27 H    0.967
                            10 C    0.116
    14   1 H    0.930 --     1 N    0.913
    15   1 H    0.927 --     1 N    0.902
    16   1 H    0.931 --     1 N    0.917
    17   1 H    0.992 --     2 C    0.960
    18   1 H    0.995 --     3 C    0.978
    19   1 H    0.995 --     3 C    0.979
    20   1 H    0.991 --     3 C    0.970
    21   1 H    0.999 --     5 C    0.962
    22   1 H    0.996 --     6 C    0.966
    23   1 H    0.998 --     7 C    0.964
    24   1 H    0.997 --    10 C    0.967
    25   1 H    0.996 --    11 C    0.969
    26   1 H    0.996 --    12 C    0.969
    27   1 H    0.997 --    13 C    0.967
 ---------------------------------------------------------------------------

molecular dipole:
                 x           y           z       tot (Debye)
 q only:        3.322       0.293      -1.667
   full:        3.135       0.111      -1.729       9.104

           -------------------------------------------------
          | TOTAL ENERGY              -35.325296189826 Eh   |
          | GRADIENT NORM               0.000674693044 Eh/α |
          | HOMO-LUMO GAP               3.120876952729 eV   |
           -------------------------------------------------

 * finished run on 2023/01/23 at 14:28:55.890
