   * xtb version 6.5.1 (fef0646) compiled by 'conda@b96dff2e9fd6' on 2023-01-04
          program call               : xtb init.xyz --opt -c 0 -u 0 -P 16 --alpb water

   ID    Z sym.   atoms
    1    7 N      1
    2    6 C      2, 3
    3   17 Cl     4
    4    1 H      5-12

      * Solvation model:               ALPB
        Solvent                        water
        Solvent mass                       1.8000E+01 g/mol
          :  Hamiltonian                  GFN2-xTB          :
 * total energy  :   -15.8565695 Eh     change       -0.4544418E-09 Eh
 * total energy  :   -15.8607244 Eh     change       -0.4154917E-02 Eh
 * total energy  :   -15.8619658 Eh     change       -0.1241429E-02 Eh
 * total energy  :   -15.8625901 Eh     change       -0.6242341E-03 Eh
 * total energy  :   -15.8632522 Eh     change       -0.6620993E-03 Eh
 * total energy  :   -15.8643840 Eh     change       -0.1131793E-02 Eh
 * total energy  :   -15.8650625 Eh     change       -0.6785442E-03 Eh
 * total energy  :   -15.8653857 Eh     change       -0.3231682E-03 Eh
 * total energy  :   -15.8655217 Eh     change       -0.1359896E-03 Eh
 * total energy  :   -15.8656268 Eh     change       -0.1051154E-03 Eh
 * total energy  :   -15.8658589 Eh     change       -0.1811603E-03 Eh
 * total energy  :   -15.8659734 Eh     change       -0.1145124E-03 Eh
 * total energy  :   -15.8660580 Eh     change       -0.8463171E-04 Eh
 * total energy  :   -15.8661071 Eh     change       -0.4910002E-04 Eh
 * total energy  :   -15.8661371 Eh     change       -0.2997460E-04 Eh
 * total energy  :   -15.8661566 Eh     change       -0.1955887E-04 Eh
 * total energy  :   -15.8661774 Eh     change       -0.2077165E-04 Eh
 * total energy  :   -15.8661880 Eh     change       -0.1062800E-04 Eh
 * total energy  :   -15.8661915 Eh     change       -0.3446472E-05 Eh
   *** GEOMETRY OPTIMIZATION CONVERGED AFTER 20 ITERATIONS ***

 final structure:
================
12
 xtb: 6.5.1 (fef0646)
N            1.27364164441555       -0.24130740597728        0.44793161270655
C            2.73769049599743       -0.37840807437352        0.28948763337665
C            3.03771764650181       -1.12783930475051       -0.99607769682646
Cl           0.13356413312388        1.28590859353370       -1.95202304603666
H            1.02652543105906        0.27533628557277        1.29473016498465
H            0.82618816764078       -1.16099446963851        0.45882126941997
H            0.87839932755687        0.28215998298712       -0.37424885104856
H            3.14678709680659       -0.91092367232541        1.14880048334482
H            3.17279600234109        0.61930761738538        0.24214259022788
H            2.67545280590369       -2.15107344320385       -0.94885662989220
H            4.10661816105260       -1.15110144240975       -1.18131333501618
H            2.55428908760072       -0.62533466680023       -1.83083419524050

          :  Hamiltonian                  GFN2-xTB          :
         :: total energy             -15.866191486204 Eh    ::
         :: gradient norm              0.000421820762 Eh/a0 ::
         :: HOMO-LUMO gap             10.295974411120 eV    ::
         :: SCC energy               -16.023450663128 Eh    ::
         :: -> dispersion             -0.004926349188 Eh    ::
         :: -> Gsolv                  -0.072516337671 Eh    ::
         :: repulsion energy           0.157250797396 Eh    ::

    * Orbital Energies and Occupations

         #    Occupation            Energy/Eh            Energy/eV
      -------------------------------------------------------------
         1        2.0000           -1.0064540             -27.3870
         2        2.0000           -0.6709489             -18.2574
         3        2.0000           -0.6236858             -16.9714
         4        2.0000           -0.5883696             -16.0104
         5        2.0000           -0.5657059             -15.3936
         6        2.0000           -0.5601937             -15.2436
         7        2.0000           -0.5295739             -14.4104
         8        2.0000           -0.4879385             -13.2775
         9        2.0000           -0.4652352             -12.6597
        10        2.0000           -0.4545651             -12.3693
        11        2.0000           -0.4363002             -11.8723
        12        2.0000           -0.4029941             -10.9660
        13        2.0000           -0.4006541             -10.9024
        14        2.0000           -0.4004619             -10.8971 (HOMO)
        15                         -0.0220918              -0.6011 (LUMO)
        16                          0.0819847               2.2309
        17                          0.1027491               2.7959
        18                          0.1164870               3.1698
        19                          0.1171874               3.1888
        20                          0.1175940               3.1999
        21                          0.1195339               3.2527
        22                          0.1196303               3.2553
        23                          0.1445154               3.9325
        24                          0.1604009               4.3647
        25                          0.1933667               5.2618
       ...                                ...                  ...
        29                          0.2953349               8.0365
      -------------------------------------------------------------
                  HL-Gap            0.3783701 Eh           10.2960 eV

     #   Z          covCN         q      C6AA      α(0)
     1   7 N        3.484    -0.170    24.665     7.376
     2   6 C        3.730    -0.020    21.027     6.546
     3   6 C        3.753    -0.138    23.206     6.869
     4  17 Cl       0.045    -0.949   124.950    17.012
     5   1 H        0.859     0.301     0.711     1.321
     6   1 H        0.859     0.297     0.722     1.331
     7   1 H        0.902     0.292     0.733     1.340
     8   1 H        0.924     0.104     1.750     2.069
     9   1 H        0.925     0.094     1.843     2.123
    10   1 H        0.925     0.065     2.139     2.287
    11   1 H        0.925     0.066     2.126     2.280
    12   1 H        0.925     0.057     2.229     2.335

Wiberg/Mayer (AO) data.
largest (>0.10) Wiberg bond orders for each atom

     #   Z sym  total        # sym  WBO       # sym  WBO       # sym  WBO
 ---------------------------------------------------------------------------
     1   7 N    3.646 --     2 C    0.965     6 H    0.897     5 H    0.896
                             7 H    0.835
     2   6 C    3.931 --     3 C    1.024     9 H    0.970     8 H    0.968
                             1 N    0.965
     3   6 C    3.988 --     2 C    1.024    10 H    0.984    12 H    0.983
                            11 H    0.980
     4  17 Cl   0.099
     5   1 H    0.910 --     1 N    0.896
     6   1 H    0.912 --     1 N    0.897
     7   1 H    0.915 --     1 N    0.835
     8   1 H    0.989 --     2 C    0.968
     9   1 H    0.991 --     2 C    0.970
    10   1 H    0.996 --     3 C    0.984
    11   1 H    0.996 --     3 C    0.980
    12   1 H    0.997 --     3 C    0.983
 ---------------------------------------------------------------------------

molecular dipole:
                 x           y           z       tot (Debye)
 q only:        2.292      -2.807       4.196
   full:        1.867      -2.422       3.689      12.180

           -------------------------------------------------
          | TOTAL ENERGY              -15.866191486204 Eh   |
          | GRADIENT NORM               0.000421820762 Eh/α |
          | HOMO-LUMO GAP              10.295974411120 eV   |
           -------------------------------------------------

 * finished run on 2023/01/24 at 15:14:47.659
