   * xtb version 6.5.1 (fef0646) compiled by 'conda@b96dff2e9fd6' on 2023-01-04
          program call               : xtb init.xyz --opt -c 1 -u 0 -P 16 --input xtb.inp

   ID    Z sym.   atoms
    1    7 N      1
    2    6 C      2-4
    3    1 H      5-12

          :  Hamiltonian                  GFN2-xTB          :
 * total energy  :   -12.9496045 Eh     change       -0.1491589E-09 Eh
 * total energy  :   -12.9509013 Eh     change       -0.1296839E-02 Eh
 * total energy  :   -12.9512048 Eh     change       -0.3034912E-03 Eh
 * total energy  :   -12.9513122 Eh     change       -0.1073794E-03 Eh
 * total energy  :   -12.9514261 Eh     change       -0.1139859E-03 Eh
 * total energy  :   -12.9515126 Eh     change       -0.8643879E-04 Eh
 * total energy  :   -12.9516243 Eh     change       -0.1116963E-03 Eh
 * total energy  :   -12.9516960 Eh     change       -0.7167330E-04 Eh
 * total energy  :   -12.9517154 Eh     change       -0.1949108E-04 Eh
 * total energy  :   -12.9517205 Eh     change       -0.5028870E-05 Eh
 * total energy  :   -12.9517392 Eh     change       -0.1872738E-04 Eh
 * total energy  :   -12.9517425 Eh     change       -0.3273613E-05 Eh
   *** GEOMETRY OPTIMIZATION CONVERGED AFTER 12 ITERATIONS ***

 final structure:
================
12
 xtb: 6.5.1 (fef0646)
N            1.04089323026802       -0.04160983056306       -0.17240288544185
C            2.52177946905219       -0.05791952698080       -0.06944527682565
C            3.29147986098068        0.75529992837022       -1.06100840391641
C            3.28192570835223       -0.74000763887003       -1.16207221338723
H            0.64495802097567        0.75761808958099        0.34258370130808
H            0.63612304054270       -0.90970857469415        0.20637022390399
H            0.77019223265899        0.04057228391398       -1.16300115243521
H            2.85797927260872       -0.12983893800905        0.95498072599359
H            4.18868560038945        1.24855090758209       -0.72404284533460
H            2.74480738582365        1.32560652613998       -1.79623049947042
H            4.17263271503082       -1.28488737868087       -0.89404352255330
H            2.72954346331688       -1.20004584778930       -1.96700785184097

          :  Hamiltonian                  GFN2-xTB          :
         :: total energy             -12.951742475441 Eh    ::
         :: gradient norm              0.000699039103 Eh/a0 ::
         :: HOMO-LUMO gap              9.457496851251 eV    ::
         :: SCC energy               -13.150354927005 Eh    ::
         :: -> dispersion             -0.004177469967 Eh    ::
         :: repulsion energy           0.198609102461 Eh    ::

    * Orbital Energies and Occupations

         #    Occupation            Energy/Eh            Energy/eV
      -------------------------------------------------------------
         1        2.0000           -0.9027616             -24.5654
         2        2.0000           -0.8579371             -23.3457
         3        2.0000           -0.8186662             -22.2770
         4        2.0000           -0.8079204             -21.9846
         5        2.0000           -0.7984288             -21.7264
         6        2.0000           -0.7425117             -20.2048
         7        2.0000           -0.7331680             -19.9505
         8        2.0000           -0.6886783             -18.7399
         9        2.0000           -0.6629524             -18.0399
        10        2.0000           -0.6239392             -16.9782
        11        2.0000           -0.6169374             -16.7877
        12        2.0000           -0.6126682             -16.6716 (HOMO)
        13                         -0.2651116              -7.2141 (LUMO)
        14                         -0.2481088              -6.7514
        15                         -0.1671583              -4.5486
        16                         -0.1038540              -2.8260
        17                         -0.0836602              -2.2765
        18                         -0.0720910              -1.9617
        19                         -0.0416136              -1.1324
        20                          0.0086588               0.2356
        21                          0.0877770               2.3885
        22                          0.1246444               3.3917
        23                          0.1492937               4.0625
        24                          0.1791345               4.8745
      -------------------------------------------------------------
                  HL-Gap            0.3475566 Eh            9.4575 eV

     #   Z          covCN         q      C6AA      α(0)
     1   7 N        3.483    -0.126    23.731     7.235
     2   6 C        3.785     0.012    20.395     6.433
     3   6 C        3.806    -0.078    21.988     6.675
     4   6 C        3.806    -0.078    21.990     6.676
     5   1 H        0.859     0.272     0.803     1.404
     6   1 H        0.859     0.272     0.803     1.404
     7   1 H        0.859     0.277     0.787     1.389
     8   1 H        0.926     0.101     1.771     2.081
     9   1 H        0.926     0.098     1.806     2.102
    10   1 H        0.926     0.077     2.014     2.219
    11   1 H        0.926     0.098     1.807     2.102
    12   1 H        0.926     0.077     2.013     2.219

Wiberg/Mayer (AO) data.
largest (>0.10) Wiberg bond orders for each atom

     #   Z sym  total        # sym  WBO       # sym  WBO       # sym  WBO
 ---------------------------------------------------------------------------
     1   7 N    3.676 --     2 C    0.918     5 H    0.909     6 H    0.909
                             7 H    0.904
     2   6 C    3.843 --     3 C    0.976     4 C    0.976     8 H    0.960
                             1 N    0.918
     3   6 C    3.933 --     4 C    0.988     2 C    0.976    10 H    0.972
                             9 H    0.970
     4   6 C    3.933 --     3 C    0.988     2 C    0.976    12 H    0.972
                            11 H    0.970
     5   1 H    0.926 --     1 N    0.909
     6   1 H    0.926 --     1 N    0.909
     7   1 H    0.923 --     1 N    0.904
     8   1 H    0.990 --     2 C    0.960
     9   1 H    0.990 --     3 C    0.970
    10   1 H    0.994 --     3 C    0.972
    11   1 H    0.990 --     4 C    0.970
    12   1 H    0.994 --     4 C    0.972
 ---------------------------------------------------------------------------

molecular dipole:
                 x           y           z       tot (Debye)
 q only:        2.782      -0.064      -0.619
   full:        2.492      -0.066      -0.566       6.497

           -------------------------------------------------
          | TOTAL ENERGY              -12.951742475441 Eh   |
          | GRADIENT NORM               0.000699039103 Eh/α |
          | HOMO-LUMO GAP               9.457496851251 eV   |
           -------------------------------------------------

 * finished run on 2023/01/23 at 18:40:35.692
