   * xtb version 6.5.1 (fef0646) compiled by 'conda@b96dff2e9fd6' on 2023-01-04
          program call               : xtb init.xyz --opt -c 1 -u 0 -P 16 --alpb water

   ID    Z sym.   atoms
    1    7 N      1
    2    6 C      2-4
    3    1 H      5-12

      * Solvation model:               ALPB
        Solvent                        water
        Solvent mass                       1.8000E+01 g/mol
          :  Hamiltonian                  GFN2-xTB          :
 * total energy  :   -13.0613273 Eh     change       -0.4558132E-11 Eh
 * total energy  :   -13.0622367 Eh     change       -0.9093504E-03 Eh
 * total energy  :   -13.0624015 Eh     change       -0.1648450E-03 Eh
 * total energy  :   -13.0624719 Eh     change       -0.7035256E-04 Eh
 * total energy  :   -13.0625446 Eh     change       -0.7269877E-04 Eh
 * total energy  :   -13.0626006 Eh     change       -0.5604352E-04 Eh
 * total energy  :   -13.0626417 Eh     change       -0.4111185E-04 Eh
 * total energy  :   -13.0626676 Eh     change       -0.2591378E-04 Eh
 * total energy  :   -13.0626744 Eh     change       -0.6795681E-05 Eh
 * total energy  :   -13.0626757 Eh     change       -0.1261787E-05 Eh
   *** GEOMETRY OPTIMIZATION CONVERGED AFTER 10 ITERATIONS ***

 final structure:
================
12
 xtb: 6.5.1 (fef0646)
N            1.06817124684427        0.01572267599557        0.00706714054244
C            2.53435373867872       -0.00030734139021        0.10508270956274
C            3.31348216397388        0.81785538473370       -0.87610000215383
C            3.30466800174432       -0.67999757002792       -0.98295348986361
H            0.67843228864557        0.81724748103843        0.52123676491475
H            0.66852777856862       -0.85070653016107        0.39217490999820
H            0.78499472462797        0.09343259572415       -0.97862952025589
H            2.88957453718046       -0.07520247128613        1.12243442236307
H            4.21082048693676        1.30848416095137       -0.53652228229638
H            2.77538603786508        1.38428632516322       -1.61899699474323
H            4.19603810781719       -1.22388291335430       -0.71635406666008
H            2.76121088711715       -1.12947179738680       -1.79835959140817

          :  Hamiltonian                  GFN2-xTB          :
         :: total energy             -13.062675698762 Eh    ::
         :: gradient norm              0.000695887179 Eh/a0 ::
         :: HOMO-LUMO gap              9.967070339150 eV    ::
         :: SCC energy               -13.262819465168 Eh    ::
         :: -> dispersion             -0.004222931079 Eh    ::
         :: -> Gsolv                  -0.115789882614 Eh    ::
         :: repulsion energy           0.200140439063 Eh    ::

    * Orbital Energies and Occupations

         #    Occupation            Energy/Eh            Energy/eV
      -------------------------------------------------------------
         1        2.0000           -0.7000916             -19.0505
         2        2.0000           -0.6664385             -18.1347
         3        2.0000           -0.6217625             -16.9190
         4        2.0000           -0.5972327             -16.2515
         5        2.0000           -0.5913101             -16.0904
         6        2.0000           -0.5659735             -15.4009
         7        2.0000           -0.5493581             -14.9488
         8        2.0000           -0.5160662             -14.0429
         9        2.0000           -0.4881367             -13.2829
        10        2.0000           -0.4546476             -12.3716
        11        2.0000           -0.4425306             -12.0419
        12        2.0000           -0.4399297             -11.9711 (HOMO)
        13                         -0.0736466              -2.0040 (LUMO)
        14                         -0.0476022              -1.2953
        15                          0.0475361               1.2935
        16                          0.0971718               2.6442
        17                          0.1132836               3.0826
        18                          0.1280223               3.4837
        19                          0.1583312               4.3084
        20                          0.1764674               4.8019
        21                          0.2711298               7.3778
        22                          0.2902645               7.8985
        23                          0.3284279               8.9370
        24                          0.3452251               9.3941
      -------------------------------------------------------------
                  HL-Gap            0.3662831 Eh            9.9671 eV

     #   Z          covCN         q      C6AA      α(0)
     1   7 N        3.484    -0.164    24.546     7.358
     2   6 C        3.786     0.022    20.214     6.404
     3   6 C        3.806    -0.091    22.226     6.711
     4   6 C        3.806    -0.091    22.226     6.711
     5   1 H        0.859     0.319     0.660     1.273
     6   1 H        0.859     0.319     0.660     1.273
     7   1 H        0.859     0.309     0.687     1.298
     8   1 H        0.926     0.100     1.786     2.090
     9   1 H        0.926     0.062     2.170     2.303
    10   1 H        0.926     0.076     2.018     2.222
    11   1 H        0.926     0.062     2.170     2.304
    12   1 H        0.926     0.076     2.018     2.222

Wiberg/Mayer (AO) data.
largest (>0.10) Wiberg bond orders for each atom

     #   Z sym  total        # sym  WBO       # sym  WBO       # sym  WBO
 ---------------------------------------------------------------------------
     1   7 N    3.651 --     2 C    0.965     7 H    0.887     5 H    0.882
                             6 H    0.882
     2   6 C    3.887 --     3 C    0.976     4 C    0.976     1 N    0.965
                             8 H    0.961
     3   6 C    3.941 --     4 C    0.987     9 H    0.977     2 C    0.976
                            10 H    0.973
     4   6 C    3.941 --     3 C    0.987    11 H    0.977     2 C    0.976
                            12 H    0.973
     5   1 H    0.898 --     1 N    0.882
     6   1 H    0.898 --     1 N    0.882
     7   1 H    0.904 --     1 N    0.887
     8   1 H    0.990 --     2 C    0.961
     9   1 H    0.996 --     3 C    0.977
    10   1 H    0.994 --     3 C    0.973
    11   1 H    0.996 --     4 C    0.977
    12   1 H    0.994 --     4 C    0.973
 ---------------------------------------------------------------------------

molecular dipole:
                 x           y           z       tot (Debye)
 q only:        2.245       0.038      -0.129
   full:        2.151       0.038      -0.120       5.476

           -------------------------------------------------
          | TOTAL ENERGY              -13.062675698762 Eh   |
          | GRADIENT NORM               0.000695887179 Eh/α |
          | HOMO-LUMO GAP               9.967070339150 eV   |
           -------------------------------------------------

 * finished run on 2023/01/24 at 15:10:11.181
