   * xtb version 6.5.1 (fef0646) compiled by 'conda@b96dff2e9fd6' on 2023-01-04
          program call               : xtb init.xyz --opt -c 1 -u 0 -P 16 --alpb water

   ID    Z sym.   atoms
    1    7 N      1, 10, 11
    2    6 C      2-9, 12-17
    3    1 H      18-33

      * Solvation model:               ALPB
        Solvent                        water
        Solvent mass                       1.8000E+01 g/mol
          :  Hamiltonian                  GFN2-xTB          :
 * total energy  :   -46.5058463 Eh     change       -0.7092638E-09 Eh
 * total energy  :   -46.5112171 Eh     change       -0.5370805E-02 Eh
 * total energy  :   -46.5124537 Eh     change       -0.1236605E-02 Eh
 * total energy  :   -46.5127538 Eh     change       -0.3000635E-03 Eh
 * total energy  :   -46.5129662 Eh     change       -0.2123725E-03 Eh
 * total energy  :   -46.5131008 Eh     change       -0.1346095E-03 Eh
 * total energy  :   -46.5132371 Eh     change       -0.1363409E-03 Eh
 * total energy  :   -46.5133476 Eh     change       -0.1104476E-03 Eh
 * total energy  :   -46.5134450 Eh     change       -0.9743255E-04 Eh
 * total energy  :   -46.5135188 Eh     change       -0.7378766E-04 Eh
 * total energy  :   -46.5137955 Eh     change       -0.4181596E-04 Eh
 * total energy  :   -46.5138430 Eh     change       -0.4751334E-04 Eh
 * total energy  :   -46.5138960 Eh     change       -0.5297888E-04 Eh
 * total energy  :   -46.5139502 Eh     change       -0.5426684E-04 Eh
 * total energy  :   -46.5139913 Eh     change       -0.4107507E-04 Eh
 * total energy  :   -46.5140295 Eh     change       -0.3819830E-04 Eh
 * total energy  :   -46.5140410 Eh     change       -0.1148144E-04 Eh
 * total energy  :   -46.5140486 Eh     change       -0.7601660E-05 Eh
 * total energy  :   -46.5140535 Eh     change       -0.4903727E-05 Eh
   *** GEOMETRY OPTIMIZATION CONVERGED AFTER 22 ITERATIONS ***

 final structure:
================
33
 xtb: 6.5.1 (fef0646)
N            2.72508413260300       -1.10217923086970       -3.55698190220736
C            2.53195191819139       -0.12222033826577       -2.46089792678662
C            3.15861067316233       -0.64913461054670       -1.16947164817683
C            4.65875860840452       -0.70892525641682       -1.27263630492101
C            5.40851169060427        0.46382702496134       -1.18255838943131
C            6.77962513550569        0.43577734574935       -1.29668939610518
C            5.31748438295387       -1.91713939744906       -1.48519722864803
C            6.69274881229566       -1.96092333768947       -1.59557065911859
C            7.44112725687292       -0.78289353637710       -1.50725040267743
N            8.81264010404270       -0.92426767968562       -1.61714128289819
N            9.48909248850300        0.15701518872564       -1.60155874631529
C           10.86334197567463        0.04058065707594       -1.67765907140110
C           11.56237343271159       -1.17405264861249       -1.64563181708880
C           12.93936458083171       -1.17527802412627       -1.70484874409965
C           13.63706914753146        0.02189203545648       -1.79781781825235
C           12.95208252238041        1.22799101974813       -1.82969518036473
C           11.57369018796718        1.24315386727450       -1.76780271130950
H            2.37762505804640       -0.73018052479681       -4.44816072207801
H            2.22577789568470       -1.97406507652512       -3.34482781251009
H            3.72453398847832       -1.31993361890877       -3.65424160512361
H            1.46572419097979        0.04484645249350       -2.31388295767627
H            3.00398825942370        0.82030942220205       -2.73683525430713
H            2.76211414113710       -1.63631384740447       -0.93433927808892
H            2.88526058838749        0.02294895142320       -0.35672937667740
H            4.91069091433950        1.40573944220700       -1.00625012158201
H            7.37200832967681        1.33416972542411       -1.21901509489812
H            4.75813451958557       -2.83917084369103       -1.53663006232707
H            7.21460837110026       -2.89193895502444       -1.74988922193243
H           11.00242299493675       -2.09330045317568       -1.56812045506255
H           13.47810769559147       -2.11062123965631       -1.67763421785106
H           14.71543780757568        0.01358180332366       -1.84262577159782
H           13.49822402423485        2.15625094038622       -1.90054548501634
H           11.02306417059520        2.17041474276097       -1.79084333347313

          :  Hamiltonian                  GFN2-xTB          :
         :: total energy             -46.514053510363 Eh    ::
         :: gradient norm              0.000353318768 Eh/a0 ::
         :: HOMO-LUMO gap              0.735106882791 eV    ::
         :: SCC energy               -47.295478609827 Eh    ::
         :: -> dispersion             -0.029315086661 Eh    ::
         :: -> Gsolv                  -0.127681195948 Eh    ::
         :: repulsion energy           0.781672278469 Eh    ::

    * Orbital Energies and Occupations

         #    Occupation            Energy/Eh            Energy/eV
      -------------------------------------------------------------
         1        2.0000           -0.6950253             -18.9126
       ...           ...                  ...                  ...
        31        2.0000           -0.4807533             -13.0820
        32        2.0000           -0.4672414             -12.7143
        33        2.0000           -0.4636418             -12.6163
        34        2.0000           -0.4580893             -12.4652
        35        2.0000           -0.4396853             -11.9644
        36        2.0000           -0.4380349             -11.9195
        37        2.0000           -0.4265224             -11.6063
        38        2.0000           -0.4255554             -11.5800
        39        2.0000           -0.4238468             -11.5335
        40        2.0000           -0.4151124             -11.2958
        41        2.0000           -0.4131697             -11.2429
        42        2.0000           -0.3915175             -10.6537
        43        2.0000           -0.3393416              -9.2340 (HOMO)
        44        0.0000           -0.3123269              -8.4988 (LUMO)
        45                         -0.2319817              -6.3125
        46                         -0.2300472              -6.2599
        47                         -0.2229623              -6.0671
        48                         -0.1972047              -5.3662
        49                         -0.0989662              -2.6930
        50                         -0.0886560              -2.4125
        51                         -0.0473075              -1.2873
        52                          0.0573841               1.5615
        53                          0.0763652               2.0780
        54                          0.0795758               2.1654
       ...                                ...                  ...
        84                          0.6594955              17.9458
      -------------------------------------------------------------
                  HL-Gap            0.0270147 Eh            0.7351 eV

     #   Z          covCN         q      C6AA      α(0)
     1   7 N        3.485    -0.155    24.341     7.328
     2   6 C        3.733    -0.037    21.331     6.592
     3   6 C        3.809    -0.097    22.337     6.728
     4   6 C        2.970     0.020    27.568     8.612
     5   6 C        2.921    -0.043    29.080     8.843
     6   6 C        2.916    -0.037    28.925     8.819
     7   6 C        2.920    -0.051    29.276     8.873
     8   6 C        2.925    -0.039    28.978     8.828
     9   6 C        2.942     0.069    26.452     8.435
    10   7 N        1.940    -0.176    25.604     7.503
    11   7 N        1.946    -0.171    25.499     7.488
    12   6 C        2.937     0.073    26.378     8.423
    13   6 C        2.918    -0.038    28.949     8.823
    14   6 C        2.917    -0.033    28.818     8.803
    15   6 C        2.920    -0.028    28.696     8.785
    16   6 C        2.917    -0.033    28.827     8.804
    17   6 C        2.928    -0.039    28.961     8.826
    18   1 H        0.859     0.318     0.662     1.275
    19   1 H        0.859     0.312     0.679     1.291
    20   1 H        0.859     0.294     0.733     1.341
    21   1 H        0.925     0.121     1.603     1.980
    22   1 H        0.925     0.111     1.687     2.031
    23   1 H        0.925     0.088     1.899     2.155
    24   1 H        0.925     0.089     1.887     2.148
    25   1 H        0.926     0.059     2.212     2.326
    26   1 H        0.926     0.045     2.380     2.412
    27   1 H        0.926     0.071     2.073     2.252
    28   1 H        0.926     0.053     2.282     2.362
    29   1 H        0.926     0.057     2.239     2.340
    30   1 H        0.926     0.046     2.376     2.411
    31   1 H        0.926     0.048     2.351     2.398
    32   1 H        0.926     0.048     2.349     2.397
    33   1 H        0.926     0.059     2.213     2.326

Wiberg/Mayer (AO) data.
largest (>0.10) Wiberg bond orders for each atom

     #   Z sym  total        # sym  WBO       # sym  WBO       # sym  WBO
 ---------------------------------------------------------------------------
     1   7 N    3.657 --     2 C    0.966    20 H    0.894    19 H    0.888
                            18 H    0.886
     2   6 C    3.922 --     3 C    0.996     1 N    0.966    22 H    0.965
                            21 H    0.963
     3   6 C    3.986 --     4 C    1.014     2 C    0.996    23 H    0.966
                            24 H    0.956
     4   6 C    3.965 --     7 C    1.399     5 C    1.380     3 C    1.014
     5   6 C    3.988 --     6 C    1.488     4 C    1.380    25 H    0.966
     6   6 C    3.982 --     5 C    1.488     9 C    1.323    26 H    0.967
     7   6 C    3.985 --     8 C    1.464     4 C    1.399    27 H    0.964
     8   6 C    3.971 --     7 C    1.464     9 C    1.339    28 H    0.968
     9   6 C    3.974 --     8 C    1.339     6 C    1.323    10 N    1.151
    10   7 N    3.023 --    11 N    1.644     9 C    1.151
    11   7 N    3.028 --    10 N    1.644    12 C    1.158
    12   6 C    3.979 --    17 C    1.335    13 C    1.328    11 N    1.158
    13   6 C    3.982 --    14 C    1.477    12 C    1.328    29 H    0.966
                            16 C    0.101
    14   6 C    3.991 --    13 C    1.477    15 C    1.416    30 H    0.969
    15   6 C    3.968 --    16 C    1.425    14 C    1.416    31 H    0.970
    16   6 C    3.991 --    17 C    1.467    15 C    1.425    32 H    0.969
                            13 C    0.101
    17   6 C    3.972 --    16 C    1.467    12 C    1.335    33 H    0.967
    18   1 H    0.899 --     1 N    0.886
    19   1 H    0.903 --     1 N    0.888
    20   1 H    0.914 --     1 N    0.894
    21   1 H    0.984 --     2 C    0.963
    22   1 H    0.988 --     2 C    0.965
    23   1 H    0.992 --     3 C    0.966
    24   1 H    0.990 --     3 C    0.956
    25   1 H    0.996 --     5 C    0.966
    26   1 H    0.998 --     6 C    0.967
    27   1 H    0.994 --     7 C    0.964
    28   1 H    0.997 --     8 C    0.968
    29   1 H    0.997 --    13 C    0.966
    30   1 H    0.998 --    14 C    0.969
    31   1 H    0.998 --    15 C    0.970
    32   1 H    0.997 --    16 C    0.969
    33   1 H    0.997 --    17 C    0.967
 ---------------------------------------------------------------------------

molecular dipole:
                 x           y           z       tot (Debye)
 q only:        4.485      -1.954      -6.411
   full:        4.892      -1.983      -6.410      21.106

           -------------------------------------------------
          | TOTAL ENERGY              -46.514053510363 Eh   |
          | GRADIENT NORM               0.000353318768 Eh/α |
          | HOMO-LUMO GAP               0.735106882791 eV   |
           -------------------------------------------------

 * finished run on 2023/01/24 at 14:56:05.025
