   * xtb version 6.5.1 (fef0646) compiled by 'conda@b96dff2e9fd6' on 2023-01-04
          program call               : xtb init.xyz --opt -c 1 -u 0 -P 16 --alpb water

   ID    Z sym.   atoms
    1    7 N      1
    2    6 C      2-4
    3    1 H      5-14

      * Solvation model:               ALPB
        Solvent                        water
        Solvent mass                       1.8000E+01 g/mol
          :  Hamiltonian                  GFN2-xTB          :
 * total energy  :   -14.1138257 Eh     change       -0.2032152E-11 Eh
 * total energy  :   -14.1147349 Eh     change       -0.9092215E-03 Eh
 * total energy  :   -14.1148447 Eh     change       -0.1097651E-03 Eh
 * total energy  :   -14.1148584 Eh     change       -0.1369453E-04 Eh
 * total energy  :   -14.1148595 Eh     change       -0.1115767E-05 Eh
   *** GEOMETRY OPTIMIZATION CONVERGED AFTER 5 ITERATIONS ***

 final structure:
================
14
 xtb: 6.5.1 (fef0646)
N            1.00054669693528        0.03754783155380        0.08145984019351
C            2.48405698830602        0.05404410390999        0.08020496588856
C            3.01263761513206        1.46318101923025        0.32717103064921
C            4.53774012352051        1.46776301060165        0.33028515689095
H            0.64672736907268       -0.91088624346352       -0.08736927185513
H            0.64039472022557        0.65961753577518       -0.65182568491509
H            0.64440506733389        0.36694685066180        0.98663462051077
H            2.84532707218442       -0.30753866638389       -0.88249683335206
H            2.85031421993923       -0.61496151192577        0.85890853328707
H            2.65908969367729        1.83560644577820        1.28935305678835
H            2.66164685887733        2.13956942846469       -0.45312429123970
H            4.92665522147738        0.82116473332539        1.11321300892260
H            4.91572052486858        2.47155274781468        0.50498328501846
H            4.92939782844976        1.12239271465755       -0.62344741678748

          :  Hamiltonian                  GFN2-xTB          :
         :: total energy             -14.114859496961 Eh    ::
         :: gradient norm              0.000284021825 Eh/a0 ::
         :: HOMO-LUMO gap             10.412654559125 eV    ::
         :: SCC energy               -14.320224516059 Eh    ::
         :: -> dispersion             -0.005062716179 Eh    ::
         :: -> Gsolv                  -0.116427078274 Eh    ::
         :: repulsion energy           0.205361092032 Eh    ::

    * Orbital Energies and Occupations

         #    Occupation            Energy/Eh            Energy/eV
      -------------------------------------------------------------
         1        2.0000           -0.6921725             -18.8350
         2        2.0000           -0.6463652             -17.5885
         3        2.0000           -0.6165735             -16.7778
         4        2.0000           -0.5923334             -16.1182
         5        2.0000           -0.5900222             -16.0553
         6        2.0000           -0.5610559             -15.2671
         7        2.0000           -0.5488378             -14.9346
         8        2.0000           -0.5150040             -14.0140
         9        2.0000           -0.4894784             -13.3194
        10        2.0000           -0.4680514             -12.7363
        11        2.0000           -0.4658556             -12.6766
        12        2.0000           -0.4452593             -12.1161
        13        2.0000           -0.4331141             -11.7856 (HOMO)
        14                         -0.0504561              -1.3730 (LUMO)
        15                          0.0536056               1.4587
        16                          0.0881136               2.3977
        17                          0.1032402               2.8093
        18                          0.1272962               3.4639
        19                          0.1459009               3.9702
        20                          0.1706178               4.6427
        21                          0.1827325               4.9724
        22                          0.1854062               5.0452
        23                          0.2239785               6.0948
        24                          0.2368255               6.4444
       ...                                ...                  ...
        26                          0.2985210               8.1232
      -------------------------------------------------------------
                  HL-Gap            0.3826580 Eh           10.4127 eV

     #   Z          covCN         q      C6AA      α(0)
     1   7 N        3.484    -0.162    24.496     7.351
     2   6 C        3.733    -0.038    21.345     6.594
     3   6 C        3.801    -0.079    22.015     6.680
     4   6 C        3.753    -0.124    22.930     6.828
     5   1 H        0.859     0.316     0.668     1.280
     6   1 H        0.859     0.308     0.690     1.302
     7   1 H        0.859     0.308     0.690     1.301
     8   1 H        0.925     0.106     1.727     2.055
     9   1 H        0.925     0.106     1.728     2.056
    10   1 H        0.924     0.064     2.149     2.292
    11   1 H        0.924     0.064     2.151     2.294
    12   1 H        0.925     0.045     2.388     2.417
    13   1 H        0.925     0.041     2.438     2.442
    14   1 H        0.925     0.045     2.389     2.417

Wiberg/Mayer (AO) data.
largest (>0.10) Wiberg bond orders for each atom

     #   Z sym  total        # sym  WBO       # sym  WBO       # sym  WBO
 ---------------------------------------------------------------------------
     1   7 N    3.653 --     2 C    0.965     6 H    0.890     7 H    0.890
                             5 H    0.887
     2   6 C    3.926 --     3 C    1.011     8 H    0.967     9 H    0.967
                             1 N    0.965
     3   6 C    3.991 --     4 C    1.017     2 C    1.011    11 H    0.974
                            10 H    0.974
     4   6 C    3.993 --     3 C    1.017    14 H    0.987    12 H    0.987
                            13 H    0.986
     5   1 H    0.900 --     1 N    0.887
     6   1 H    0.905 --     1 N    0.890
     7   1 H    0.905 --     1 N    0.890
     8   1 H    0.989 --     2 C    0.967
     9   1 H    0.989 --     2 C    0.967
    10   1 H    0.996 --     3 C    0.974
    11   1 H    0.996 --     3 C    0.974
    12   1 H    0.998 --     4 C    0.987
    13   1 H    0.998 --     4 C    0.986
    14   1 H    0.998 --     4 C    0.987
 ---------------------------------------------------------------------------

molecular dipole:
                 x           y           z       tot (Debye)
 q only:        2.138       0.127       0.163
   full:        2.056       0.138       0.165       5.255

           -------------------------------------------------
          | TOTAL ENERGY              -14.114859496961 Eh   |
          | GRADIENT NORM               0.000284021825 Eh/α |
          | HOMO-LUMO GAP              10.412654559125 eV   |
           -------------------------------------------------

 * finished run on 2023/01/24 at 14:56:05.407
