   * xtb version 6.5.1 (fef0646) compiled by 'conda@b96dff2e9fd6' on 2023-01-04
          program call               : xtb init.xyz --opt -c 0 -u 0 -P 16

   ID    Z sym.   atoms
    1    7 N      1
    2    6 C      2, 3
    3   17 Cl     4
    4    1 H      5-12

          :  Hamiltonian                  GFN2-xTB          :
 * total energy  :   -15.8054618 Eh     change       -0.4969944E-09 Eh
 * total energy  :   -15.8111093 Eh     change       -0.5647503E-02 Eh
 * total energy  :   -15.8158169 Eh     change       -0.4707565E-02 Eh
 * total energy  :   -15.8188647 Eh     change       -0.3047767E-02 Eh
 * total energy  :   -15.8215489 Eh     change       -0.2684193E-02 Eh
 * total energy  :   -15.8231068 Eh     change       -0.1557951E-02 Eh
 * total energy  :   -15.8234805 Eh     change       -0.3736520E-03 Eh
 * total energy  :   -15.8236217 Eh     change       -0.1412483E-03 Eh
 * total energy  :   -15.8236201 Eh     change        0.1637646E-05 Eh
 * total energy  :   -15.8236506 Eh     change       -0.3054113E-04 Eh
 * total energy  :   -15.8236590 Eh     change       -0.8352885E-05 Eh
 * total energy  :   -15.8236797 Eh     change       -0.2074041E-04 Eh
 * total energy  :   -15.8236988 Eh     change       -0.1913618E-04 Eh
 * total energy  :   -15.8237068 Eh     change       -0.7937206E-05 Eh
 * total energy  :   -15.8237079 Eh     change       -0.1143455E-05 Eh
   *** GEOMETRY OPTIMIZATION CONVERGED AFTER 15 ITERATIONS ***

 final structure:
================
12
 xtb: 6.5.1 (fef0646)
N            1.09615218684655        0.29893680303533        0.23130587639800
C            2.55191967239780        0.25921160643818        0.09106722045395
C            3.08994985132835       -1.03515148260786        0.68113444364556
Cl          -0.10611556872152       -1.98144640307106       -1.16471368340014
H            0.70887701099801        1.15021252217284       -0.15947077965136
H            0.82813129891903        0.23329171412595        1.20800102561529
H            0.46834869891944       -0.91846857580974       -0.50987721184897
H            3.03417961498209        1.11950844177861        0.57721599873586
H            2.77718992472146        0.30090613056957       -0.97679411173339
H            2.88431749759272       -1.08291663751170        1.74868771508702
H            4.16445357197478       -1.09635414407104        0.53260879782311
H            2.61656624004137       -1.88485997504906        0.19766470887500

          :  Hamiltonian                  GFN2-xTB          :
         :: total energy             -15.823707916891 Eh    ::
         :: gradient norm              0.000663665710 Eh/a0 ::
         :: HOMO-LUMO gap              9.197862907459 eV    ::
         :: SCC energy               -15.972080874885 Eh    ::
         :: -> dispersion             -0.005420892916 Eh    ::
         :: repulsion energy           0.148364817251 Eh    ::

    * Orbital Energies and Occupations

         #    Occupation            Energy/Eh            Energy/eV
      -------------------------------------------------------------
         1        2.0000           -1.0160979             -27.6494
         2        2.0000           -0.6593568             -17.9420
         3        2.0000           -0.6209903             -16.8980
         4        2.0000           -0.5895301             -16.0419
         5        2.0000           -0.5557595             -15.1230
         6        2.0000           -0.5489774             -14.9384
         7        2.0000           -0.5222161             -14.2102
         8        2.0000           -0.4915662             -13.3762
         9        2.0000           -0.4753744             -12.9356
        10        2.0000           -0.4711945             -12.8219
        11        2.0000           -0.4574560             -12.4480
        12        2.0000           -0.3987868             -10.8515
        13        2.0000           -0.3931935             -10.6993
        14        2.0000           -0.3931227             -10.6974 (HOMO)
        15                         -0.0551074              -1.4995 (LUMO)
        16                          0.0200795               0.5464
        17                          0.0682499               1.8572
        18                          0.0686235               1.8673
        19                          0.0741863               2.0187
        20                          0.0743508               2.0232
        21                          0.0987707               2.6877
        22                          0.1058034               2.8791
        23                          0.1268191               3.4509
        24                          0.1541281               4.1940
        25                          0.1721183               4.6836
       ...                                ...                  ...
        29                          0.2673593               7.2752
      -------------------------------------------------------------
                  HL-Gap            0.3380152 Eh            9.1979 eV

     #   Z          covCN         q      C6AA      α(0)
     1   7 N        2.698    -0.304    27.833     7.835
     2   6 C        3.730     0.012    20.468     6.458
     3   6 C        3.753    -0.122    22.899     6.824
     4  17 Cl       0.837    -0.489   115.263    16.424
     5   1 H        0.860     0.164     1.309     1.792
     6   1 H        0.860     0.168     1.285     1.775
     7   1 H        0.903     0.333     0.620     1.232
     8   1 H        0.923     0.024     2.672     2.556
     9   1 H        0.924     0.052     2.290     2.366
    10   1 H        0.925     0.044     2.400     2.423
    11   1 H        0.925     0.049     2.331     2.388
    12   1 H        0.925     0.069     2.101     2.267

Wiberg/Mayer (AO) data.
largest (>0.10) Wiberg bond orders for each atom

     #   Z sym  total        # sym  WBO       # sym  WBO       # sym  WBO
 ---------------------------------------------------------------------------
     1   7 N    3.242 --     2 C    1.004     5 H    0.960     6 H    0.958
                             7 H    0.209
     2   6 C    3.975 --     3 C    1.020     1 N    1.004     9 H    0.975
                             8 H    0.974
     3   6 C    3.992 --     2 C    1.020    10 H    0.986    11 H    0.984
                            12 H    0.983
     4  17 Cl   0.764 --     7 H    0.676
     5   1 H    0.973 --     1 N    0.960
     6   1 H    0.972 --     1 N    0.958
     7   1 H    0.889 --     4 Cl   0.676     1 N    0.209
     8   1 H    0.999 --     2 C    0.974
     9   1 H    0.997 --     2 C    0.975
    10   1 H    0.998 --     3 C    0.986
    11   1 H    0.998 --     3 C    0.984
    12   1 H    0.995 --     3 C    0.983
 ---------------------------------------------------------------------------

molecular dipole:
                 x           y           z       tot (Debye)
 q only:        0.968       1.401       0.950
   full:        0.798       1.405       0.919       4.726

           -------------------------------------------------
          | TOTAL ENERGY              -15.823707916891 Eh   |
          | GRADIENT NORM               0.000663665710 Eh/α |
          | HOMO-LUMO GAP               9.197862907459 eV   |
           -------------------------------------------------

 * finished run on 2023/01/23 at 13:44:25.242
