   * xtb version 6.5.1 (fef0646) compiled by 'conda@b96dff2e9fd6' on 2023-01-04
          program call               : xtb init.xyz --opt -c 0 -u 0 -P 16 --alpb water

   ID    Z sym.   atoms
    1    7 N      1
    2    6 C      2-5
    3   53 I      6
    4   17 Cl     7
    5    1 H      8-18

      * Solvation model:               ALPB
        Solvent                        water
        Solvent mass                       1.8000E+01 g/mol
          :  Hamiltonian                  GFN2-xTB          :
 * total energy  :   -25.4869458 Eh     change       -0.2482707E-09 Eh
 * total energy  :   -25.4915508 Eh     change       -0.4605057E-02 Eh
 * total energy  :   -25.4926563 Eh     change       -0.1105442E-02 Eh
 * total energy  :   -25.4929565 Eh     change       -0.3002449E-03 Eh
 * total energy  :   -25.4932329 Eh     change       -0.2763991E-03 Eh
 * total energy  :   -25.4937369 Eh     change       -0.5039601E-03 Eh
 * total energy  :   -25.4945197 Eh     change       -0.7827966E-03 Eh
 * total energy  :   -25.4953474 Eh     change       -0.8277644E-03 Eh
 * total energy  :   -25.4963650 Eh     change       -0.1017544E-02 Eh
 * total energy  :   -25.4972184 Eh     change       -0.8534522E-03 Eh
 * total energy  :   -25.4997151 Eh     change       -0.9257376E-04 Eh
 * total energy  :   -25.4997949 Eh     change       -0.7982852E-04 Eh
 * total energy  :   -25.4998414 Eh     change       -0.4650336E-04 Eh
 * total energy  :   -25.4998627 Eh     change       -0.2125216E-04 Eh
 * total energy  :   -25.4998666 Eh     change       -0.3874331E-05 Eh
 * total energy  :   -25.4998879 Eh     change       -0.2136187E-04 Eh
 * total energy  :   -25.4998929 Eh     change       -0.4922228E-05 Eh
 * total energy  :   -25.4998984 Eh     change       -0.5564600E-05 Eh
 * total energy  :   -25.4999022 Eh     change       -0.3829333E-05 Eh
   *** GEOMETRY OPTIMIZATION CONVERGED AFTER 27 ITERATIONS ***

 final structure:
================
18
 xtb: 6.5.1 (fef0646)
N            1.26782875166035       -0.24430951780085        0.39699378518836
C            2.73711532920317       -0.19618974130245        0.26124344617106
C            3.13040712245660       -0.48719572042361       -1.18221962404779
C            4.63613844534368       -0.31984725136353       -1.39035901145272
C            4.98776254215176       -0.56581376881125       -2.84324285088904
I            7.12681757291395       -0.37333920299557       -3.20979217261468
Cl           0.09981612591144        1.65855903613428       -1.69342627116984
H            0.96951176552943        0.01456247590917        1.33976644714648
H            0.90773738970845       -1.17305192837848        0.16276216233772
H            0.83337200941572        0.43245283385332       -0.28290739654399
H            3.19359426688694       -0.92220178399319        0.93514207758547
H            3.07545643138573        0.80418629270736        0.52936116420157
H            2.58791084773867        0.20207703473393       -1.83223145679931
H            2.84207063671877       -1.50344253529841       -1.45349785360965
H            5.17834349869339       -1.02268784742224       -0.75445964799257
H            4.93488591304410        0.69142167555523       -1.10825040480979
H            4.50740446292404        0.15600927498001       -3.49858145265137
H            4.72738688831364       -1.57296932608361       -3.15812094004986

          :  Hamiltonian                  GFN2-xTB          :
         :: total energy             -25.499902245162 Eh    ::
         :: gradient norm              0.000547605002 Eh/a0 ::
         :: HOMO-LUMO gap              4.609491351080 eV    ::
         :: SCC energy               -25.738969694183 Eh    ::
         :: -> dispersion             -0.011379588025 Eh    ::
         :: -> Gsolv                  -0.077918656337 Eh    ::
         :: repulsion energy           0.239063657491 Eh    ::

    * Orbital Energies and Occupations

         #    Occupation            Energy/Eh            Energy/eV
      -------------------------------------------------------------
         1        2.0000           -1.0093519             -27.4659
       ...           ...                  ...                  ...
        11        2.0000           -0.5345801             -14.5467
        12        2.0000           -0.5029502             -13.6860
        13        2.0000           -0.4975279             -13.5384
        14        2.0000           -0.4935132             -13.4292
        15        2.0000           -0.4611402             -12.5483
        16        2.0000           -0.4599754             -12.5166
        17        2.0000           -0.4545423             -12.3687
        18        2.0000           -0.4360888             -11.8666
        19        2.0000           -0.4076505             -11.0927
        20        2.0000           -0.4058267             -11.0431
        21        2.0000           -0.4054949             -11.0341
        22        2.0000           -0.4030221             -10.9668
        23        2.0000           -0.4025882             -10.9550 (HOMO)
        24                         -0.2331925              -6.3455 (LUMO)
        25                         -0.0325656              -0.8862
        26                          0.0234815               0.6390
        27                          0.0261282               0.7110
        28                          0.0359705               0.9788
        29                          0.0477471               1.2993
        30                          0.0740397               2.0147
        31                          0.0870787               2.3695
        32                          0.0963509               2.6218
        33                          0.1078391               2.9345
        34                          0.1138054               3.0968
       ...                                ...                  ...
        49                          0.3507991               9.5457
      -------------------------------------------------------------
                  HL-Gap            0.1693957 Eh            4.6095 eV

     #   Z          covCN         q      C6AA      α(0)
     1   7 N        3.484    -0.171    24.690     7.380
     2   6 C        3.733    -0.026    21.138     6.562
     3   6 C        3.806    -0.079    22.003     6.678
     4   6 C        3.904    -0.065    21.682     6.619
     5   6 C        3.783     0.001    20.589     6.464
     6  53 I        1.069    -0.200   386.917    33.956
     7  17 Cl       0.048    -0.947   124.853    17.006
     8   1 H        0.859     0.308     0.691     1.302
     9   1 H        0.859     0.299     0.717     1.327
    10   1 H        0.904     0.296     0.722     1.329
    11   1 H        0.924     0.110     1.700     2.039
    12   1 H        0.925     0.101     1.779     2.086
    13   1 H        0.924     0.064     2.155     2.296
    14   1 H        0.924     0.065     2.136     2.286
    15   1 H        0.924     0.063     2.163     2.300
    16   1 H        0.924     0.055     2.256     2.349
    17   1 H        0.932     0.060     2.201     2.320
    18   1 H        0.932     0.068     2.109     2.271

Wiberg/Mayer (AO) data.
largest (>0.10) Wiberg bond orders for each atom

     #   Z sym  total        # sym  WBO       # sym  WBO       # sym  WBO
 ---------------------------------------------------------------------------
     1   7 N    3.642 --     2 C    0.972     9 H    0.896     8 H    0.892
                            10 H    0.831
     2   6 C    3.928 --     3 C    1.008     1 N    0.972    12 H    0.968
                            11 H    0.966
     3   6 C    3.991 --     2 C    1.008     4 C    0.994    14 H    0.973
                            13 H    0.971
     4   6 C    3.991 --     5 C    1.024     3 C    0.994    16 H    0.976
                            15 H    0.975
     5   6 C    3.948 --     4 C    1.024    17 H    0.981    18 H    0.979
                             6 I    0.946
     6  53 I    0.985 --     5 C    0.946
     7  17 Cl   0.104
     8   1 H    0.905 --     1 N    0.892
     9   1 H    0.911 --     1 N    0.896
    10   1 H    0.912 --     1 N    0.831
    11   1 H    0.988 --     2 C    0.966
    12   1 H    0.990 --     2 C    0.968
    13   1 H    0.996 --     3 C    0.971
    14   1 H    0.996 --     3 C    0.973
    15   1 H    0.996 --     4 C    0.975
    16   1 H    0.997 --     4 C    0.976
    17   1 H    0.996 --     5 C    0.981
    18   1 H    0.995 --     5 C    0.979
 ---------------------------------------------------------------------------

molecular dipole:
                 x           y           z       tot (Debye)
 q only:        1.249      -3.471       4.046
   full:        0.191      -3.013       3.551      11.847

           -------------------------------------------------
          | TOTAL ENERGY              -25.499902245162 Eh   |
          | GRADIENT NORM               0.000547605002 Eh/α |
          | HOMO-LUMO GAP               4.609491351080 eV   |
           -------------------------------------------------

 * finished run on 2023/01/24 at 16:40:48.272
