   * xtb version 6.5.1 (fef0646) compiled by 'conda@b96dff2e9fd6' on 2023-01-04
          program call               : xtb init.xyz --opt -c 1 -u 0 -P 16 --input xtb.inp

   ID    Z sym.   atoms
    1    7 N      1
    2    6 C      2-7
    3    1 H      8-21

          :  Hamiltonian                  GFN2-xTB          :
 * total energy  :   -22.5001133 Eh     change       -0.1112390E-09 Eh
 * total energy  :   -22.5013163 Eh     change       -0.1202982E-02 Eh
 * total energy  :   -22.5017647 Eh     change       -0.4484065E-03 Eh
 * total energy  :   -22.5018705 Eh     change       -0.1058379E-03 Eh
 * total energy  :   -22.5019079 Eh     change       -0.3739513E-04 Eh
 * total energy  :   -22.5019196 Eh     change       -0.1166450E-04 Eh
 * total energy  :   -22.5019165 Eh     change        0.3076534E-05 Eh
 * total energy  :   -22.5019240 Eh     change       -0.7554390E-05 Eh
 * total energy  :   -22.5019273 Eh     change       -0.3256603E-05 Eh
   *** GEOMETRY OPTIMIZATION CONVERGED AFTER 9 ITERATIONS ***

 final structure:
================
21
 xtb: 6.5.1 (fef0646)
N           -1.76546313161088        0.06505023261788        0.82296878789993
C           -1.09166527389956        0.04291656944371       -0.52558931892173
C           -0.19875569239681        1.27391217075784       -0.63863872799069
C            0.97319824192247        1.22194672316210        0.34190854316554
C            1.76871709859672       -0.06702432918824        0.15816276859751
C            0.87790289047768       -1.29296164461261        0.33597940487794
C           -0.29450431213035       -1.25164313023314       -0.64456684669065
H           -2.30588539556460        0.92787659678350        0.95332008482187
H           -1.01154649532746        0.02765950801962        1.52718338073849
H           -2.38013924951141       -0.74798570370887        0.94408360915247
H           -1.87907711017253        0.07467118673185       -1.28369423138474
H           -0.78546903261211        2.18240206714914       -0.48898550421570
H            0.19434160504278        1.30903538916209       -1.65443763536040
H            0.62849387873014        1.30702361924100        1.37735699184714
H            1.62061722592739        2.07842925659008        0.15923388902137
H            2.58890194986934       -0.09979029740574        0.87413885042142
H            2.20235658405784       -0.08111594757205       -0.84189489756834
H            0.52775681800339       -1.35660517559478        1.37125068533854
H            1.45865086817859       -2.19515784298261        0.14928619914012
H           -0.94827887840216       -2.11382100792163       -0.49890398479086
H            0.09497741082152       -1.31176824043913       -1.66059204809922

          :  Hamiltonian                  GFN2-xTB          :
         :: total energy             -22.501927305360 Eh    ::
         :: gradient norm              0.000761952588 Eh/a0 ::
         :: HOMO-LUMO gap              8.498566101282 eV    ::
         :: SCC energy               -22.824243825531 Eh    ::
         :: -> dispersion             -0.013086765617 Eh    ::
         :: repulsion energy           0.322250209795 Eh    ::

    * Orbital Energies and Occupations

         #    Occupation            Energy/Eh            Energy/eV
      -------------------------------------------------------------
         1        2.0000           -0.8834653             -24.0403
       ...           ...                  ...                  ...
         9        2.0000           -0.7214541             -19.6318
        10        2.0000           -0.6894745             -18.7616
        11        2.0000           -0.6824438             -18.5702
        12        2.0000           -0.6571986             -17.8833
        13        2.0000           -0.6496680             -17.6784
        14        2.0000           -0.6391745             -17.3928
        15        2.0000           -0.6252300             -17.0134
        16        2.0000           -0.6244499             -16.9921
        17        2.0000           -0.6186260             -16.8337
        18        2.0000           -0.5943788             -16.1739
        19        2.0000           -0.5696707             -15.5015
        20        2.0000           -0.5686563             -15.4739
        21        2.0000           -0.5663895             -15.4122 (HOMO)
        22                         -0.2540729              -6.9137 (LUMO)
        23                         -0.1649750              -4.4892
        24                         -0.1024265              -2.7872
        25                         -0.1016637              -2.7664
        26                         -0.0812358              -2.2105
        27                         -0.0588986              -1.6027
        28                         -0.0555904              -1.5127
        29                         -0.0352484              -0.9592
        30                         -0.0283806              -0.7723
        31                         -0.0220067              -0.5988
        32                          0.0225426               0.6134
       ...                                ...                  ...
        42                          0.1696836               4.6173
      -------------------------------------------------------------
                  HL-Gap            0.3123166 Eh            8.4986 eV

     #   Z          covCN         q      C6AA      α(0)
     1   7 N        3.485    -0.142    24.069     7.287
     2   6 C        3.782     0.024    20.189     6.401
     3   6 C        3.807    -0.085    22.107     6.693
     4   6 C        3.804    -0.070    21.837     6.653
     5   6 C        3.806    -0.073    21.891     6.661
     6   6 C        3.804    -0.070    21.836     6.653
     7   6 C        3.807    -0.085    22.108     6.693
     8   1 H        0.859     0.262     0.837     1.433
     9   1 H        0.859     0.278     0.784     1.387
    10   1 H        0.859     0.262     0.838     1.434
    11   1 H        0.924     0.086     1.923     2.169
    12   1 H        0.924     0.056     2.244     2.343
    13   1 H        0.925     0.090     1.883     2.146
    14   1 H        0.924     0.030     2.580     2.512
    15   1 H        0.925     0.070     2.088     2.260
    16   1 H        0.925     0.060     2.197     2.318
    17   1 H        0.925     0.060     2.196     2.317
    18   1 H        0.924     0.030     2.581     2.512
    19   1 H        0.925     0.070     2.088     2.259
    20   1 H        0.924     0.056     2.243     2.342
    21   1 H        0.925     0.090     1.883     2.146

Wiberg/Mayer (AO) data.
largest (>0.10) Wiberg bond orders for each atom

     #   Z sym  total        # sym  WBO       # sym  WBO       # sym  WBO
 ---------------------------------------------------------------------------
     1   7 N    3.667 --    10 H    0.915     8 H    0.915     2 C    0.897
                             9 H    0.886
     2   6 C    3.895 --     3 C    0.998     7 C    0.998    11 H    0.962
                             1 N    0.897
     3   6 C    3.983 --     4 C    1.006     2 C    0.998    12 H    0.971
                            13 H    0.963
     4   6 C    3.993 --     5 C    1.009     3 C    1.006    15 H    0.972
                            14 H    0.969
     5   6 C    3.992 --     4 C    1.009     6 C    1.009    17 H    0.974
                            16 H    0.974
     6   6 C    3.993 --     5 C    1.009     7 C    1.006    19 H    0.971
                            18 H    0.969
     7   6 C    3.983 --     6 C    1.006     2 C    0.998    20 H    0.971
                            21 H    0.963
     8   1 H    0.931 --     1 N    0.915
     9   1 H    0.923 --     1 N    0.886
    10   1 H    0.931 --     1 N    0.915
    11   1 H    0.993 --     2 C    0.962
    12   1 H    0.997 --     3 C    0.971
    13   1 H    0.992 --     3 C    0.963
    14   1 H    0.999 --     4 C    0.969
    15   1 H    0.995 --     4 C    0.972
    16   1 H    0.996 --     5 C    0.974
    17   1 H    0.996 --     5 C    0.974
    18   1 H    0.999 --     6 C    0.969
    19   1 H    0.995 --     6 C    0.971
    20   1 H    0.997 --     7 C    0.971
    21   1 H    0.992 --     7 C    0.963
 ---------------------------------------------------------------------------

molecular dipole:
                 x           y           z       tot (Debye)
 q only:       -2.259       0.083       0.919
   full:       -2.512       0.092       1.104       6.977

           -------------------------------------------------
          | TOTAL ENERGY              -22.501927305360 Eh   |
          | GRADIENT NORM               0.000761952588 Eh/α |
          | HOMO-LUMO GAP               8.498566101282 eV   |
           -------------------------------------------------

 * finished run on 2023/01/23 at 18:45:17.203
