   * xtb version 6.5.1 (fef0646) compiled by 'conda@b96dff2e9fd6' on 2023-01-04
          program call               : xtb init.xyz --opt -c 1 -u 0 -P 16 --alpb water

   ID    Z sym.   atoms
    1    7 N      1
    2    6 C      2-8
    3    1 H      9-18

      * Solvation model:               ALPB
        Solvent                        water
        Solvent mass                       1.8000E+01 g/mol
          :  Hamiltonian                  GFN2-xTB          :
 * total energy  :   -22.6612036 Eh     change       -0.2299281E-09 Eh
 * total energy  :   -22.6628041 Eh     change       -0.1600439E-02 Eh
 * total energy  :   -22.6629255 Eh     change       -0.1214039E-03 Eh
 * total energy  :   -22.6629443 Eh     change       -0.1876205E-04 Eh
 * total energy  :   -22.6629542 Eh     change       -0.9993553E-05 Eh
 * total energy  :   -22.6629590 Eh     change       -0.4780337E-05 Eh
   *** GEOMETRY OPTIMIZATION CONVERGED AFTER 6 ITERATIONS ***

 final structure:
================
18
 xtb: 6.5.1 (fef0646)
N            1.37229027638248        0.69899510041094       -0.69832938564610
C            2.53177200333258        0.03841518297657       -0.03572576985880
C            3.01026678926811       -1.12842428601463       -0.86029509395868
C            3.96219228959315       -0.93916490665502       -1.85498851368138
C            4.38533895863795       -2.00615620783155       -2.62814453311483
C            3.85751657200651       -3.26922915719866       -2.41496542677232
C            2.90815074810728       -3.46436831723411       -1.42505570037286
C            2.48467224028601       -2.39771669096938       -0.65145025746291
H            1.05544244762084        1.50597881949155       -0.14825574215449
H            0.59487382433307        0.03505941640158       -0.79427677244624
H            1.64019304120987        1.01897653648227       -1.63644080743300
H            2.22557797093513       -0.30723713214870        0.95107240828824
H            3.33549198058256        0.76562647159141        0.07593790617581
H            4.38980367792954        0.03804719330200       -2.02065541681608
H            5.12942363954229       -1.85688298421369       -3.39612348940018
H            4.18989976095886       -4.10223751798056       -3.01654905920157
H            2.50179105933042       -4.45035595072472       -1.25649850657055
H            1.75405271994333       -2.56327556968532        0.12572416042594

          :  Hamiltonian                  GFN2-xTB          :
         :: total energy             -22.662959026418 Eh    ::
         :: gradient norm              0.000743661300 Eh/a0 ::
         :: HOMO-LUMO gap              4.755167769160 eV    ::
         :: SCC energy               -23.067714987242 Eh    ::
         :: -> dispersion             -0.012114764613 Eh    ::
         :: -> Gsolv                  -0.117383299889 Eh    ::
         :: repulsion energy           0.404714032697 Eh    ::

    * Orbital Energies and Occupations

         #    Occupation            Energy/Eh            Energy/eV
      -------------------------------------------------------------
         1        2.0000           -0.6945507             -18.8997
       ...           ...                  ...                  ...
         9        2.0000           -0.5749547             -15.6453
        10        2.0000           -0.5532008             -15.0534
        11        2.0000           -0.5268518             -14.3364
        12        2.0000           -0.5079043             -13.8208
        13        2.0000           -0.5002424             -13.6123
        14        2.0000           -0.4827975             -13.1376
        15        2.0000           -0.4817480             -13.1090
        16        2.0000           -0.4785862             -13.0230
        17        2.0000           -0.4706129             -12.8060
        18        2.0000           -0.4316467             -11.7457
        19        2.0000           -0.4254178             -11.5762
        20        2.0000           -0.4103109             -11.1651
        21        2.0000           -0.4101121             -11.1597 (HOMO)
        22                         -0.2353629              -6.4046 (LUMO)
        23                         -0.2287322              -6.2241
        24                         -0.1072722              -2.9190
        25                         -0.0327507              -0.8912
        26                          0.0583297               1.5872
        27                          0.0786590               2.1404
        28                          0.1163257               3.1654
        29                          0.1213474               3.3020
        30                          0.1393017               3.7906
        31                          0.1629604               4.4344
        32                          0.1668694               4.5407
       ...                                ...                  ...
        42                          0.6565497              17.8656
      -------------------------------------------------------------
                  HL-Gap            0.1747492 Eh            4.7552 eV

     #   Z          covCN         q      C6AA      α(0)
     1   7 N        3.485    -0.159    24.424     7.340
     2   6 C        3.737    -0.047    21.494     6.616
     3   6 C        2.970     0.006    27.894     8.663
     4   6 C        2.923    -0.045    29.114     8.848
     5   6 C        2.919    -0.032    28.806     8.801
     6   6 C        2.920    -0.031    28.770     8.796
     7   6 C        2.919    -0.032    28.805     8.801
     8   6 C        2.923    -0.045    29.107     8.847
     9   1 H        0.859     0.321     0.655     1.268
    10   1 H        0.859     0.307     0.692     1.303
    11   1 H        0.859     0.307     0.694     1.305
    12   1 H        0.925     0.118     1.631     1.997
    13   1 H        0.925     0.118     1.629     1.996
    14   1 H        0.926     0.061     2.188     2.313
    15   1 H        0.926     0.034     2.534     2.490
    16   1 H        0.926     0.026     2.649     2.545
    17   1 H        0.926     0.034     2.536     2.490
    18   1 H        0.926     0.061     2.192     2.315

Wiberg/Mayer (AO) data.
largest (>0.10) Wiberg bond orders for each atom

     #   Z sym  total        # sym  WBO       # sym  WBO       # sym  WBO
 ---------------------------------------------------------------------------
     1   7 N    3.654 --     2 C    0.957    11 H    0.892    10 H    0.892
                             9 H    0.884
     2   6 C    3.926 --     3 C    1.008    12 H    0.962    13 H    0.962
                             1 N    0.957
     3   6 C    3.988 --     8 C    1.414     4 C    1.414     2 C    1.008
                             6 C    0.109
     4   6 C    3.989 --     5 C    1.444     3 C    1.414    14 H    0.966
                             7 C    0.112
     5   6 C    3.992 --     4 C    1.444     6 C    1.439    15 H    0.971
                             8 C    0.112
     6   6 C    3.992 --     7 C    1.440     5 C    1.439    16 H    0.972
                             3 C    0.109
     7   6 C    3.992 --     8 C    1.443     6 C    1.440    17 H    0.971
                             4 C    0.112
     8   6 C    3.989 --     7 C    1.443     3 C    1.414    18 H    0.966
                             5 C    0.112
     9   1 H    0.896 --     1 N    0.884
    10   1 H    0.906 --     1 N    0.892
    11   1 H    0.906 --     1 N    0.892
    12   1 H    0.986 --     2 C    0.962
    13   1 H    0.986 --     2 C    0.962
    14   1 H    0.996 --     4 C    0.966
    15   1 H    0.999 --     5 C    0.971
    16   1 H    0.999 --     6 C    0.972
    17   1 H    0.999 --     7 C    0.971
    18   1 H    0.996 --     8 C    0.966
 ---------------------------------------------------------------------------

molecular dipole:
                 x           y           z       tot (Debye)
 q only:        2.751       1.318      -1.127
   full:        2.753       1.190      -1.281       8.289

           -------------------------------------------------
          | TOTAL ENERGY              -22.662959026418 Eh   |
          | GRADIENT NORM               0.000743661300 Eh/α |
          | HOMO-LUMO GAP               4.755167769160 eV   |
           -------------------------------------------------

 * finished run on 2023/01/24 at 14:55:58.327
