   * xtb version 6.5.1 (fef0646) compiled by 'conda@b96dff2e9fd6' on 2023-01-04
          program call               : xtb init.xyz --opt -c 1 -u 0 -P 16

   ID    Z sym.   atoms
    1    7 N      1
    2    6 C      2-9
    3    1 H      10-21

          :  Hamiltonian                  GFN2-xTB          :
 * total energy  :   -25.7192906 Eh     change       -0.6078338E-10 Eh
 * total energy  :   -25.7211984 Eh     change       -0.1907822E-02 Eh
 * total energy  :   -25.7216019 Eh     change       -0.4035374E-03 Eh
 * total energy  :   -25.7218278 Eh     change       -0.2258905E-03 Eh
 * total energy  :   -25.7220483 Eh     change       -0.2204721E-03 Eh
 * total energy  :   -25.7222681 Eh     change       -0.2198352E-03 Eh
 * total energy  :   -25.7225169 Eh     change       -0.2488098E-03 Eh
 * total energy  :   -25.7227613 Eh     change       -0.2443987E-03 Eh
 * total energy  :   -25.7229409 Eh     change       -0.1795374E-03 Eh
 * total energy  :   -25.7230553 Eh     change       -0.1144420E-03 Eh
 * total energy  :   -25.7242887 Eh     change       -0.1436389E-03 Eh
 * total energy  :   -25.7243540 Eh     change       -0.6523655E-04 Eh
 * total energy  :   -25.7243818 Eh     change       -0.2789288E-04 Eh
 * total energy  :   -25.7244015 Eh     change       -0.1970458E-04 Eh
 * total energy  :   -25.7244328 Eh     change       -0.3129742E-04 Eh
 * total energy  :   -25.7244633 Eh     change       -0.3044953E-04 Eh
 * total energy  :   -25.7244772 Eh     change       -0.1393417E-04 Eh
 * total energy  :   -25.7244923 Eh     change       -0.1508903E-04 Eh
 * total energy  :   -25.7244965 Eh     change       -0.4132999E-05 Eh
   *** GEOMETRY OPTIMIZATION CONVERGED AFTER 26 ITERATIONS ***

 final structure:
================
21
 xtb: 6.5.1 (fef0646)
N            3.07573301286098       -2.54571660827966       -1.01207964096241
C            2.42988960226320       -1.53816627844850       -1.90482059404576
C            2.86571586853391       -0.14696090485992       -1.43895082291482
C            4.37268106445262       -0.09318620855196       -1.43410158748240
C            5.07284706161569        0.26501808933668       -2.57951984865402
C            6.45620875031682        0.22900300634654       -2.59378886195341
C            7.15652979084837       -0.17933678632454       -1.46878647284858
C            6.47093525645866       -0.53575802136543       -0.32099192919424
C            5.08303468287925       -0.50237709277794       -0.30312209351045
H            3.14251662320822       -3.47221614835292       -1.44352239557311
H            2.56730694169438       -2.62810944443348       -0.12461048685795
H            4.03495559787766       -2.15391459520902       -0.80530401529825
H            1.34713468439135       -1.65484314377101       -1.87559986287167
H            2.77930133175672       -1.70945064772318       -2.92381345759931
H            2.46834125324078        0.05859280781725       -0.44397860163019
H            2.45903918128507        0.59628167597650       -2.12248499662552
H            4.53249029698468        0.58935755736375       -3.45580740479330
H            6.98974571815453        0.52482802884451       -3.48297657768670
H            8.23428930615562       -0.20266635075721       -1.48195250145038
H            7.01035892956771       -0.83077114120335        0.56568551708034
H            4.56518504545320       -0.69783779362706        0.62865663487179

          :  Hamiltonian                  GFN2-xTB          :
         :: total energy             -25.724496452834 Eh    ::
         :: gradient norm              0.000602713866 Eh/a0 ::
         :: HOMO-LUMO gap              4.716570615981 eV    ::
         :: SCC energy               -26.170317509492 Eh    ::
         :: -> dispersion             -0.015321656138 Eh    ::
         :: repulsion energy           0.445723835507 Eh    ::

    * Orbital Energies and Occupations

         #    Occupation            Energy/Eh            Energy/eV
      -------------------------------------------------------------
         1        2.0000           -0.8847495             -24.0753
       ...           ...                  ...                  ...
        12        2.0000           -0.6771293             -18.4256
        13        2.0000           -0.6616534             -18.0045
        14        2.0000           -0.6500110             -17.6877
        15        2.0000           -0.6378929             -17.3579
        16        2.0000           -0.6250900             -17.0096
        17        2.0000           -0.6104351             -16.6108
        18        2.0000           -0.6091234             -16.5751
        19        2.0000           -0.6044968             -16.4492
        20        2.0000           -0.6040668             -16.4375
        21        2.0000           -0.5541541             -15.0793
        22        2.0000           -0.5510246             -14.9941
        23        2.0000           -0.5391104             -14.6699
        24        2.0000           -0.5355333             -14.5726 (HOMO)
        25                         -0.3622026              -9.8560 (LUMO)
        26                         -0.3584005              -9.7526
        27                         -0.2466901              -6.7128
        28                         -0.2307084              -6.2779
        29                         -0.1446884              -3.9372
        30                         -0.0909319              -2.4744
        31                         -0.0831205              -2.2618
        32                         -0.0548960              -1.4938
        33                         -0.0384350              -1.0459
        34                         -0.0126443              -0.3441
        35                          0.0110981               0.3020
       ...                                ...                  ...
        48                          0.5259578              14.3120
      -------------------------------------------------------------
                  HL-Gap            0.1733308 Eh            4.7166 eV

     #   Z          covCN         q      C6AA      α(0)
     1   7 N        3.482    -0.144    24.096     7.291
     2   6 C        3.735    -0.029    21.181     6.568
     3   6 C        3.809    -0.092    22.244     6.714
     4   6 C        2.972    -0.005    28.132     8.700
     5   6 C        2.921    -0.037    28.914     8.818
     6   6 C        2.919    -0.018    28.470     8.750
     7   6 C        2.919    -0.021    28.535     8.760
     8   6 C        2.917    -0.026    28.649     8.777
     9   6 C        2.921    -0.065    29.620     8.925
    10   1 H        0.859     0.260     0.845     1.440
    11   1 H        0.859     0.263     0.836     1.432
    12   1 H        0.856     0.279     0.781     1.384
    13   1 H        0.925     0.103     1.756     2.072
    14   1 H        0.924     0.104     1.753     2.071
    15   1 H        0.924     0.071     2.074     2.252
    16   1 H        0.925     0.094     1.838     2.120
    17   1 H        0.926     0.051     2.307     2.375
    18   1 H        0.926     0.062     2.177     2.307
    19   1 H        0.926     0.062     2.179     2.308
    20   1 H        0.926     0.054     2.267     2.354
    21   1 H        0.925     0.034     2.532     2.488

Wiberg/Mayer (AO) data.
largest (>0.10) Wiberg bond orders for each atom

     #   Z sym  total        # sym  WBO       # sym  WBO       # sym  WBO
 ---------------------------------------------------------------------------
     1   7 N    3.664 --     2 C    0.935    10 H    0.918    11 H    0.916
                            12 H    0.834
     2   6 C    3.900 --     3 C    0.994    14 H    0.968    13 H    0.968
                             1 N    0.935
     3   6 C    3.979 --     4 C    1.005     2 C    0.994    15 H    0.969
                            16 H    0.960
     4   6 C    3.987 --     5 C    1.411     9 C    1.386     3 C    1.005
                             7 C    0.107
     5   6 C    3.991 --     6 C    1.448     4 C    1.411    17 H    0.967
                             8 C    0.110
     6   6 C    3.989 --     5 C    1.448     7 C    1.432    18 H    0.968
                             9 C    0.106
     7   6 C    3.989 --     8 C    1.447     6 C    1.432    19 H    0.969
                             4 C    0.107
     8   6 C    3.990 --     7 C    1.447     9 C    1.423    20 H    0.969
                             5 C    0.110
     9   6 C    3.990 --     8 C    1.423     4 C    1.386    21 H    0.960
                             6 C    0.106
    10   1 H    0.932 --     1 N    0.918
    11   1 H    0.931 --     1 N    0.916
    12   1 H    0.922 --     1 N    0.834
    13   1 H    0.988 --     2 C    0.968
    14   1 H    0.989 --     2 C    0.968
    15   1 H    0.995 --     3 C    0.969
    16   1 H    0.991 --     3 C    0.960
    17   1 H    0.997 --     5 C    0.967
    18   1 H    0.996 --     6 C    0.968
    19   1 H    0.996 --     7 C    0.969
    20   1 H    0.997 --     8 C    0.969
    21   1 H    0.999 --     9 C    0.960
 ---------------------------------------------------------------------------

molecular dipole:
                 x           y           z       tot (Debye)
 q only:        6.438      -3.855      -2.364
   full:        6.458      -4.011      -2.242      20.146

           -------------------------------------------------
          | TOTAL ENERGY              -25.724496452834 Eh   |
          | GRADIENT NORM               0.000602713866 Eh/α |
          | HOMO-LUMO GAP               4.716570615981 eV   |
           -------------------------------------------------

 * finished run on 2023/01/23 at 14:09:10.111
