   * xtb version 6.5.1 (fef0646) compiled by 'conda@b96dff2e9fd6' on 2023-01-04
          program call               : xtb init.xyz --opt -c 0 -u 0 -P 16 --alpb water

   ID    Z sym.   atoms
    1    7 N      1
    2    6 C      2, 3, 5-24
    3    8 O      4
    4   17 Cl     25
    5    1 H      26-43

      * Solvation model:               ALPB
        Solvent                        water
        Solvent mass                       1.8000E+01 g/mol
          :  Hamiltonian                  GFN2-xTB          :
 * total energy  :   -67.8800891 Eh     change       -0.3722704E-08 Eh
 * total energy  :   -67.8888726 Eh     change       -0.8783467E-02 Eh
 * total energy  :   -67.8912039 Eh     change       -0.2331309E-02 Eh
 * total energy  :   -67.8917596 Eh     change       -0.5557524E-03 Eh
 * total energy  :   -67.8923886 Eh     change       -0.6289883E-03 Eh
 * total energy  :   -67.8928327 Eh     change       -0.4440735E-03 Eh
 * total energy  :   -67.8938733 Eh     change       -0.1040623E-02 Eh
 * total energy  :   -67.8950973 Eh     change       -0.1224008E-02 Eh
 * total energy  :   -67.8960486 Eh     change       -0.9512862E-03 Eh
 * total energy  :   -67.8966144 Eh     change       -0.5657775E-03 Eh
 * total energy  :   -67.8991634 Eh     change       -0.1781798E-04 Eh
 * total energy  :   -67.8991809 Eh     change       -0.1748722E-04 Eh
 * total energy  :   -67.8991936 Eh     change       -0.1273307E-04 Eh
 * total energy  :   -67.8992033 Eh     change       -0.9703911E-05 Eh
 * total energy  :   -67.8992147 Eh     change       -0.1138524E-04 Eh
 * total energy  :   -67.8992314 Eh     change       -0.1669859E-04 Eh
 * total energy  :   -67.8992397 Eh     change       -0.8340389E-05 Eh
 * total energy  :   -67.8992480 Eh     change       -0.8275306E-05 Eh
 * total energy  :   -67.8992524 Eh     change       -0.4405265E-05 Eh
   *** GEOMETRY OPTIMIZATION CONVERGED AFTER 41 ITERATIONS ***

 final structure:
================
43
 xtb: 6.5.1 (fef0646)
N            1.79603534286077       -0.44329986944651        1.01638113815999
C            2.33367503842500       -1.60550457261009        0.28646513077063
C            3.69313413569996       -1.25520004457539       -0.32239404147504
O            4.65264126215246       -0.93961164988119        0.67516503403064
C            5.36617470492466       -1.93162257521830        1.27608750904805
C            5.16520743943368       -3.27839653822419        1.09394025101623
C            5.96496809471685       -4.20358453957165        1.76163946311801
C            6.96966232753756       -3.82891949936912        2.63436154155108
C            7.18333273265679       -2.44103086226989        2.85578624746771
C            8.18065718161487       -1.97994563980757        3.75716150132717
C            8.37954702635180       -0.61589194023192        3.89229231325596
C            7.61631965814918        0.30993446823372        3.18492023388528
C            6.62932971273424       -0.11464480185644        2.33808577233091
C            6.39256537590917       -1.49005005652639        2.16022618319408
C            7.80707277881069       -4.80099972425505        3.32327948730777
C            7.69344268491905       -6.16351774350784        3.10242653598491
C            8.48616430651061       -7.08726148087625        3.78249246420802
C            9.40397019020224       -6.66333464814058        4.70293821852326
C            9.56710067662469       -5.28799018682014        4.96023195445644
C           10.50882610493812       -4.84430719568183        5.90924539587692
C           10.65840572116669       -3.50838393373215        6.15877440129255
C            9.89424125992505       -2.57318555902434        5.46146850932379
C            8.96538411439151       -2.95406257476857        4.50758448794905
C            8.77423819914718       -4.34027564258472        4.25778665902530
Cl          -0.64368808149742       -1.37352081337968        2.55859810992597
H            0.93140080576483       -0.72022688402755        1.55260104128411
H            1.54685827546750        0.31847948204047        0.38066454816739
H            2.48986891862056       -0.10803822140047        1.69112915200518
H            1.63718003724219       -1.89569959612101       -0.49798446573405
H            2.42743535019028       -2.43254562931828        0.99028876295042
H            3.61458745224940       -0.34278111473596       -0.91804338871112
H            4.04726826426914       -2.06302313408378       -0.96704161040843
H            4.39601850205139       -3.65448684425820        0.43948069620959
H            5.76275642858753       -5.24585028448923        1.57803071061878
H            9.14397945877589       -0.23790841462728        4.55109991579597
H            7.80938775602603        1.36397580813845        3.31514197611915
H            6.03014569335909        0.59099349408874        1.78672932410973
H            6.98084497190203       -6.54592902589908        2.39011162803311
H            8.36206958151065       -8.14099503166982        3.57890083982172
H           10.01568990143589       -7.37014371502622        5.24417585626861
H           11.10262156285021       -5.57758447229900        6.43491747911709
H           11.37158477908257       -3.16504870482410        6.89357918327225
H           10.04749427231909       -1.53187008733358        5.69289384948160

          :  Hamiltonian                  GFN2-xTB          :
         :: total energy             -67.899252416953 Eh    ::
         :: gradient norm              0.000450388215 Eh/a0 ::
         :: HOMO-LUMO gap              1.839011155188 eV    ::
         :: SCC energy               -69.004440580170 Eh    ::
         :: -> dispersion             -0.051870548821 Eh    ::
         :: -> Gsolv                  -0.077019736820 Eh    ::
         :: repulsion energy           1.105221103080 Eh    ::

    * Orbital Energies and Occupations

         #    Occupation            Energy/Eh            Energy/eV
      -------------------------------------------------------------
         1        2.0000           -1.0067727             -27.3957
       ...           ...                  ...                  ...
        50        2.0000           -0.4307222             -11.7205
        51        2.0000           -0.4292647             -11.6809
        52        2.0000           -0.4227201             -11.5028
        53        2.0000           -0.4041176             -10.9966
        54        2.0000           -0.4026840             -10.9576
        55        2.0000           -0.4011680             -10.9163
        56        2.0000           -0.4004405             -10.8965
        57        2.0000           -0.4003167             -10.8932
        58        2.0000           -0.4003004             -10.8927
        59        2.0000           -0.3986230             -10.8471
        60        2.0000           -0.3970978             -10.8056
        61        2.0000           -0.3906809             -10.6310
        62        2.0000           -0.3486604              -9.4875 (HOMO)
        63                         -0.2810779              -7.6485 (LUMO)
        64                         -0.2269117              -6.1746
        65                         -0.2227971              -6.0626
        66                         -0.2213671              -6.0237
        67                         -0.2184875              -5.9453
        68                         -0.1530271              -4.1641
        69                         -0.1515571              -4.1241
        70                         -0.1128165              -3.0699
        71                         -0.0711083              -1.9350
        72                         -0.0290896              -0.7916
        73                         -0.0188611              -0.5132
       ...                                ...                  ...
       123                          0.7413780              20.1739
      -------------------------------------------------------------
                  HL-Gap            0.0675824 Eh            1.8390 eV

     #   Z          covCN         q      C6AA      α(0)
     1   7 N        3.484    -0.163    24.519     7.354
     2   6 C        3.730    -0.031    21.226     6.577
     3   6 C        3.689     0.046    19.992     6.399
     4   8 O        1.704    -0.275    18.567     5.818
     5   6 C        2.859     0.132    25.103     8.212
     6   6 C        2.910    -0.078    29.957     8.975
     7   6 C        2.923    -0.043    29.060     8.840
     8   6 C        2.972    -0.009    28.232     8.716
     9   6 C        2.994     0.000    28.010     8.682
    10   6 C        2.974     0.003    27.953     8.672
    11   6 C        2.923    -0.040    28.989     8.829
    12   6 C        2.913    -0.038    28.941     8.822
    13   6 C        2.921    -0.039    28.978     8.828
    14   6 C        2.986    -0.010    28.254     8.719
    15   6 C        2.973     0.003    27.942     8.671
    16   6 C        2.923    -0.045    29.106     8.847
    17   6 C        2.913    -0.037    28.920     8.818
    18   6 C        2.921    -0.045    29.107     8.847
    19   6 C        2.986     0.008    27.837     8.655
    20   6 C        2.921    -0.043    29.076     8.843
    21   6 C        2.913    -0.037    28.922     8.819
    22   6 C        2.923    -0.043    29.069     8.842
    23   6 C        2.973     0.002    27.966     8.674
    24   6 C        2.995     0.000    28.011     8.682
    25  17 Cl       0.067    -0.943   124.726    16.997
    26   1 H        0.923     0.300     0.710     1.318
    27   1 H        0.859     0.303     0.704     1.314
    28   1 H        0.859     0.296     0.727     1.335
    29   1 H        0.925     0.116     1.649     2.008
    30   1 H        0.925     0.103     1.761     2.075
    31   1 H        0.924     0.104     1.748     2.068
    32   1 H        0.924     0.076     2.019     2.222
    33   1 H        0.926     0.053     2.287     2.365
    34   1 H        0.926     0.039     2.460     2.453
    35   1 H        0.926     0.035     2.513     2.479
    36   1 H        0.926     0.039     2.457     2.451
    37   1 H        0.926     0.061     2.191     2.314
    38   1 H        0.926     0.035     2.513     2.479
    39   1 H        0.926     0.032     2.558     2.501
    40   1 H        0.926     0.031     2.569     2.507
    41   1 H        0.926     0.032     2.554     2.499
    42   1 H        0.926     0.033     2.543     2.494
    43   1 H        0.926     0.036     2.506     2.476

Wiberg/Mayer (AO) data.
largest (>0.10) Wiberg bond orders for each atom

     #   Z sym  total        # sym  WBO       # sym  WBO       # sym  WBO
 ---------------------------------------------------------------------------
     1   7 N    3.646 --     2 C    0.977    28 H    0.896    27 H    0.893
                            26 H    0.824
     2   6 C    3.933 --     3 C    1.000     1 N    0.977    30 H    0.964
                            29 H    0.963
     3   6 C    3.931 --     2 C    1.000     4 O    0.962    32 H    0.961
                            31 H    0.959
     4   8 O    2.226 --     5 C    1.068     3 C    0.962
     5   6 C    3.918 --     6 C    1.450    14 C    1.207     4 O    1.068
     6   6 C    3.984 --     5 C    1.450     7 C    1.365    33 H    0.962
     7   6 C    3.971 --     8 C    1.443     6 C    1.365    34 H    0.962
     8   6 C    3.987 --     7 C    1.443     9 C    1.239    15 C    1.103
     9   6 C    3.989 --    14 C    1.268    10 C    1.251     8 C    1.239
    10   6 C    3.988 --    11 C    1.441     9 C    1.251    23 C    1.099
                            13 C    0.101
    11   6 C    3.973 --    10 C    1.441    12 C    1.369    35 H    0.962
    12   6 C    3.990 --    13 C    1.516    11 C    1.369    36 H    0.970
    13   6 C    3.965 --    12 C    1.516    14 C    1.297    37 H    0.965
                            10 C    0.101
    14   6 C    3.987 --    13 C    1.297     9 C    1.268     5 C    1.207
    15   6 C    3.988 --    16 C    1.442    24 C    1.248     8 C    1.103
                            18 C    0.101
    16   6 C    3.967 --    15 C    1.442    17 C    1.361    38 H    0.962
    17   6 C    3.991 --    18 C    1.526    16 C    1.361    39 H    0.970
    18   6 C    3.963 --    17 C    1.526    19 C    1.280    40 H    0.968
                            15 C    0.101
    19   6 C    3.989 --    20 C    1.280    18 C    1.280    24 C    1.257
    20   6 C    3.964 --    21 C    1.527    19 C    1.280    41 H    0.968
                            23 C    0.101
    21   6 C    3.991 --    20 C    1.527    22 C    1.361    42 H    0.970
    22   6 C    3.969 --    23 C    1.444    21 C    1.361    43 H    0.962
    23   6 C    3.988 --    22 C    1.444    24 C    1.250    10 C    1.099
                            20 C    0.101
    24   6 C    3.988 --    19 C    1.257    23 C    1.250    15 C    1.248
    25  17 Cl   0.110
    26   1 H    0.910 --     1 N    0.824
    27   1 H    0.908 --     1 N    0.893
    28   1 H    0.913 --     1 N    0.896
    29   1 H    0.986 --     2 C    0.963
    30   1 H    0.989 --     2 C    0.964
    31   1 H    0.988 --     3 C    0.959
    32   1 H    0.993 --     3 C    0.961
    33   1 H    0.996 --     6 C    0.962
    34   1 H    0.998 --     7 C    0.962
    35   1 H    0.998 --    11 C    0.962
    36   1 H    0.997 --    12 C    0.970
    37   1 H    0.995 --    13 C    0.965
    38   1 H    0.998 --    16 C    0.962
    39   1 H    0.998 --    17 C    0.970
    40   1 H    0.998 --    18 C    0.968
    41   1 H    0.998 --    20 C    0.968
    42   1 H    0.998 --    21 C    0.970
    43   1 H    0.998 --    22 C    0.962
 ---------------------------------------------------------------------------

molecular dipole:
                 x           y           z       tot (Debye)
 q only:        3.694       1.675      -3.559
   full:        3.192       1.352      -3.056      11.746

           -------------------------------------------------
          | TOTAL ENERGY              -67.899252416953 Eh   |
          | GRADIENT NORM               0.000450388215 Eh/α |
          | HOMO-LUMO GAP               1.839011155188 eV   |
           -------------------------------------------------

 * finished run on 2023/01/24 at 16:48:29.763
