   * xtb version 6.5.1 (fef0646) compiled by 'conda@b96dff2e9fd6' on 2023-01-04
          program call               : xtb init.xyz --opt -c 0 -u 0 -P 16 --input xtb.inp

   ID    Z sym.   atoms
    1    7 N      1
    2    6 C      2-5
    3   53 I      6
    4   17 Cl     7
    5    1 H      8-18

          :  Hamiltonian                  GFN2-xTB          :
 * total energy  :   -25.4341258 Eh     change       -0.3138112E-10 Eh
 * total energy  :   -25.4412363 Eh     change       -0.7110583E-02 Eh
 * total energy  :   -25.4456790 Eh     change       -0.4442641E-02 Eh
 * total energy  :   -25.4487952 Eh     change       -0.3116200E-02 Eh
 * total energy  :   -25.4516656 Eh     change       -0.2870413E-02 Eh
 * total energy  :   -25.4535464 Eh     change       -0.1880859E-02 Eh
 * total energy  :   -25.4539456 Eh     change       -0.3991280E-03 Eh
 * total energy  :   -25.4541075 Eh     change       -0.1619208E-03 Eh
 * total energy  :   -25.4541613 Eh     change       -0.5383883E-04 Eh
 * total energy  :   -25.4541966 Eh     change       -0.3527626E-04 Eh
 * total energy  :   -25.4542954 Eh     change       -0.4968563E-04 Eh
 * total energy  :   -25.4543206 Eh     change       -0.2526147E-04 Eh
 * total energy  :   -25.4543382 Eh     change       -0.1762254E-04 Eh
 * total energy  :   -25.4543546 Eh     change       -0.1632539E-04 Eh
 * total energy  :   -25.4543684 Eh     change       -0.1382405E-04 Eh
 * total energy  :   -25.4543921 Eh     change       -0.2371005E-04 Eh
 * total energy  :   -25.4543987 Eh     change       -0.6558363E-05 Eh
 * total energy  :   -25.4544049 Eh     change       -0.6262317E-05 Eh
 * total energy  :   -25.4544087 Eh     change       -0.3758847E-05 Eh
   *** GEOMETRY OPTIMIZATION CONVERGED AFTER 20 ITERATIONS ***

 final structure:
================
18
 xtb: 6.5.1 (fef0646)
N            1.10564551543034        0.00369054629892        0.53209543727283
C            2.56335973863820       -0.07486392136104        0.58756906618514
C            3.03377834897746       -1.41337673314056        0.02336936090835
C            4.55878184270792       -1.48336734241649       -0.04659169468807
C            5.00082033458136       -2.80473873982344       -0.64158692618019
I            7.15503898740140       -2.94703661511711       -0.75347800117339
Cl           0.23265399419500       -0.38812335349618       -2.25086944326282
H            0.77284402977320        0.90349597127827        0.85986026978338
H            0.68133599503666       -0.72480336400981        1.09726790459849
H            0.63377653552884       -0.19698773784887       -0.95762615625688
H            2.94809477386569        0.05107838635379        1.60995426842721
H            2.95825997642225        0.73792875030111       -0.02613504587509
H            2.61059509428745       -1.53598930976170       -0.97398226249520
H            2.65717322050783       -2.22462497228044        0.65106386993017
H            4.97883023660368       -1.36775342449750        0.95587263581608
H            4.92958241242341       -0.65986044501061       -0.66074935390218
H            4.63359648724389       -2.92463892986295       -1.65774593163059
H            4.67349247637529       -3.64665876560538       -0.03622799745755

          :  Hamiltonian                  GFN2-xTB          :
         :: total energy             -25.454408676884 Eh    ::
         :: gradient norm              0.000715433832 Eh/a0 ::
         :: HOMO-LUMO gap              4.545536500764 eV    ::
         :: SCC energy               -25.685497181967 Eh    ::
         :: -> dispersion             -0.012008992624 Eh    ::
         :: repulsion energy           0.231085137460 Eh    ::

    * Orbital Energies and Occupations

         #    Occupation            Energy/Eh            Energy/eV
      -------------------------------------------------------------
         1        2.0000           -1.0264905             -27.9322
       ...           ...                  ...                  ...
        11        2.0000           -0.5348371             -14.5537
        12        2.0000           -0.5120417             -13.9334
        13        2.0000           -0.5058048             -13.7636
        14        2.0000           -0.5020922             -13.6626
        15        2.0000           -0.4811657             -13.0932
        16        2.0000           -0.4741307             -12.9018
        17        2.0000           -0.4656229             -12.6702
        18        2.0000           -0.4569754             -12.4349
        19        2.0000           -0.4099697             -11.1558
        20        2.0000           -0.4087134             -11.1217
        21        2.0000           -0.4072486             -11.0818
        22        2.0000           -0.4034158             -10.9775
        23        2.0000           -0.4033755             -10.9764 (HOMO)
        24                         -0.2363301              -6.4309 (LUMO)
        25                         -0.0660810              -1.7982
        26                         -0.0018619              -0.0507
        27                          0.0192408               0.5236
        28                          0.0207008               0.5633
        29                          0.0341343               0.9288
        30                          0.0422099               1.1486
        31                          0.0569195               1.5489
        32                          0.0575909               1.5671
        33                          0.0629657               1.7134
        34                          0.0632861               1.7221
       ...                                ...                  ...
        49                          0.3595522               9.7839
      -------------------------------------------------------------
                  HL-Gap            0.1670454 Eh            4.5455 eV

     #   Z          covCN         q      C6AA      α(0)
     1   7 N        2.681    -0.308    27.922     7.848
     2   6 C        3.732     0.008    20.525     6.467
     3   6 C        3.805    -0.074    21.916     6.665
     4   6 C        3.920    -0.056    21.516     6.592
     5   6 C        3.784     0.000    20.591     6.464
     6  53 I        1.088    -0.151   383.146    33.790
     7  17 Cl       0.838    -0.478   114.889    16.397
     8   1 H        0.860     0.168     1.284     1.775
     9   1 H        0.860     0.167     1.290     1.779
    10   1 H        0.888     0.333     0.621     1.233
    11   1 H        0.923     0.027     2.629     2.536
    12   1 H        0.924     0.055     2.259     2.350
    13   1 H        0.924     0.066     2.131     2.283
    14   1 H        0.924     0.039     2.459     2.452
    15   1 H        0.924     0.044     2.392     2.418
    16   1 H        0.924     0.049     2.330     2.387
    17   1 H        0.933     0.057     2.235     2.337
    18   1 H        0.933     0.052     2.290     2.366

Wiberg/Mayer (AO) data.
largest (>0.10) Wiberg bond orders for each atom

     #   Z sym  total        # sym  WBO       # sym  WBO       # sym  WBO
 ---------------------------------------------------------------------------
     1   7 N    3.227 --     2 C    1.007     9 H    0.958     8 H    0.958
                            10 H    0.196
     2   6 C    3.972 --     1 N    1.007     3 C    1.004    12 H    0.974
                            11 H    0.972
     3   6 C    3.993 --     2 C    1.004     4 C    0.997    14 H    0.976
                            13 H    0.971
     4   6 C    3.995 --     5 C    1.025     3 C    0.997    15 H    0.977
                            16 H    0.977
     5   6 C    3.964 --     4 C    1.025    18 H    0.983    17 H    0.983
                             6 I    0.957
     6  53 I    0.988 --     5 C    0.957
     7  17 Cl   0.775 --    10 H    0.689
     8   1 H    0.971 --     1 N    0.958
     9   1 H    0.972 --     1 N    0.958
    10   1 H    0.889 --     7 Cl   0.689     1 N    0.196
    11   1 H    0.999 --     2 C    0.972
    12   1 H    0.997 --     2 C    0.974
    13   1 H    0.996 --     3 C    0.971
    14   1 H    0.998 --     3 C    0.976
    15   1 H    0.998 --     4 C    0.977
    16   1 H    0.998 --     4 C    0.977
    17   1 H    0.997 --     5 C    0.983
    18   1 H    0.997 --     5 C    0.983
 ---------------------------------------------------------------------------

molecular dipole:
                 x           y           z       tot (Debye)
 q only:       -0.078       0.346       1.811
   full:       -1.048       0.420       1.779       5.355

           -------------------------------------------------
          | TOTAL ENERGY              -25.454408676884 Eh   |
          | GRADIENT NORM               0.000715433832 Eh/α |
          | HOMO-LUMO GAP               4.545536500764 eV   |
           -------------------------------------------------

 * finished run on 2023/01/23 at 20:45:13.434
