   * xtb version 6.5.1 (fef0646) compiled by 'conda@b96dff2e9fd6' on 2023-01-04
          program call               : xtb init.xyz --opt -c 1 -u 0 -P 16

   ID    Z sym.   atoms
    1    7 N      1
    2    6 C      2-13
    3    1 H      14-27

          :  Hamiltonian                  GFN2-xTB          :
 * total energy  :   -35.3134588 Eh     change       -0.2033005E-09 Eh
 * total energy  :   -35.3175300 Eh     change       -0.4071123E-02 Eh
 * total energy  :   -35.3184669 Eh     change       -0.9369343E-03 Eh
 * total energy  :   -35.3187217 Eh     change       -0.2548228E-03 Eh
 * total energy  :   -35.3190310 Eh     change       -0.3092519E-03 Eh
 * total energy  :   -35.3191991 Eh     change       -0.1680971E-03 Eh
 * total energy  :   -35.3193950 Eh     change       -0.1959391E-03 Eh
 * total energy  :   -35.3195413 Eh     change       -0.1462674E-03 Eh
 * total energy  :   -35.3196371 Eh     change       -0.9587099E-04 Eh
 * total energy  :   -35.3197236 Eh     change       -0.8648110E-04 Eh
 * total energy  :   -35.3212987 Eh     change       -0.1055919E-03 Eh
 * total energy  :   -35.3213530 Eh     change       -0.5421722E-04 Eh
 * total energy  :   -35.3214004 Eh     change       -0.4745652E-04 Eh
 * total energy  :   -35.3214395 Eh     change       -0.3907241E-04 Eh
 * total energy  :   -35.3214584 Eh     change       -0.1889410E-04 Eh
 * total energy  :   -35.3214806 Eh     change       -0.2223529E-04 Eh
 * total energy  :   -35.3214931 Eh     change       -0.1250843E-04 Eh
 * total energy  :   -35.3215005 Eh     change       -0.7402893E-05 Eh
 * total energy  :   -35.3215050 Eh     change       -0.4444770E-05 Eh
   *** GEOMETRY OPTIMIZATION CONVERGED AFTER 31 ITERATIONS ***

 final structure:
================
27
 xtb: 6.5.1 (fef0646)
N            3.09003240300213        0.58746679825200        0.72428188150776
C            2.52579643107111       -0.76027755826170        0.41710663723136
C            3.01965826802596       -1.17614840298599       -0.97076716733867
C            4.52599334612098       -1.11281312426908       -0.97977744160004
C            5.28575149492484       -2.19633351810933       -0.62317779136346
C            6.68972692127976       -2.11013582651094       -0.53594826904693
C            7.48574491103410       -3.22203314834228       -0.19059031369860
C            8.84579600538961       -3.10534834198069       -0.11809264895218
C            9.47190447593750       -1.87597681500932       -0.38428145594923
C            8.72914444571760       -0.77821900355473       -0.71757127877767
C            7.32367969096709       -0.86510541094471       -0.80312666824057
C            6.52727649092065        0.23549093425656       -1.17302923615062
C            5.16269590109951        0.12339443273994       -1.25293681700066
H            3.13428824525474        0.77783017339408        1.72939451047655
H            2.54249823005868        1.32576948679212        0.26907722425741
H            4.06041720318917        0.58453767476048        0.29238809627004
H            1.43775617400174       -0.72939727740065        0.46900346651918
H            2.89793186053718       -1.46469454593672        1.16205271698485
H            2.60019941823878       -0.51722593102508       -1.73248519527798
H            2.67680419529559       -2.18843001974024       -1.17707114170088
H            4.81297661348021       -3.14572110842385       -0.41768685308050
H            7.00187706862714       -4.16630102041532        0.01026857065044
H            9.45063867451895       -3.96014708203797        0.14242830862153
H           10.54705490396115       -1.80705110208942       -0.32524012268428
H            9.20496461451393        0.16833773322508       -0.92633421138825
H            7.00991679451107        1.17225632120515       -1.40852492107088
H            4.58740521832003        0.95206568241272       -1.64964987919785

          :  Hamiltonian                  GFN2-xTB          :
         :: total energy             -35.321504969878 Eh    ::
         :: gradient norm              0.000396408459 Eh/a0 ::
         :: HOMO-LUMO gap              3.089756416963 eV    ::
         :: SCC energy               -35.956838635047 Eh    ::
         :: -> dispersion             -0.024198641222 Eh    ::
         :: repulsion energy           0.635235421342 Eh    ::

    * Orbital Energies and Occupations

         #    Occupation            Energy/Eh            Energy/eV
      -------------------------------------------------------------
         1        2.0000           -0.8777915             -23.8859
       ...           ...                  ...                  ...
        21        2.0000           -0.6071921             -16.5225
        22        2.0000           -0.6054018             -16.4738
        23        2.0000           -0.6005949             -16.3430
        24        2.0000           -0.5862658             -15.9531
        25        2.0000           -0.5803412             -15.7919
        26        2.0000           -0.5760790             -15.6759
        27        2.0000           -0.5668616             -15.4251
        28        2.0000           -0.5566096             -15.1461
        29        2.0000           -0.5421673             -14.7531
        30        2.0000           -0.5272752             -14.3479
        31        2.0000           -0.5228354             -14.2271
        32        2.0000           -0.5146321             -14.0039
        33        2.0000           -0.4918339             -13.3835 (HOMO)
        34                         -0.3782875             -10.2937 (LUMO)
        35                         -0.3494459              -9.5089
        36                         -0.3029690              -8.2442
        37                         -0.2659558              -7.2370
        38                         -0.2387742              -6.4974
        39                         -0.1722812              -4.6880
        40                         -0.1368426              -3.7237
        41                         -0.0843957              -2.2965
        42                         -0.0759332              -2.0662
        43                         -0.0479870              -1.3058
        44                         -0.0331488              -0.9020
       ...                                ...                  ...
        66                          0.5864548              15.9582
      -------------------------------------------------------------
                  HL-Gap            0.1135465 Eh            3.0898 eV

     #   Z          covCN         q      C6AA      α(0)
     1   7 N        3.481    -0.146    24.142     7.298
     2   6 C        3.735    -0.028    21.162     6.565
     3   6 C        3.809    -0.090    22.213     6.709
     4   6 C        2.968    -0.012    28.307     8.727
     5   6 C        2.921    -0.044    29.096     8.846
     6   6 C        2.986     0.018    27.605     8.618
     7   6 C        2.917    -0.032    28.792     8.799
     8   6 C        2.916    -0.017    28.443     8.745
     9   6 C        2.916    -0.018    28.461     8.748
    10   6 C        2.917    -0.030    28.759     8.794
    11   6 C        2.986     0.015    27.670     8.629
    12   6 C        2.915    -0.032    28.807     8.801
    13   6 C        2.916    -0.075    29.868     8.962
    14   1 H        0.859     0.257     0.856     1.449
    15   1 H        0.859     0.260     0.845     1.440
    16   1 H        0.855     0.280     0.777     1.381
    17   1 H        0.925     0.100     1.786     2.090
    18   1 H        0.924     0.101     1.774     2.083
    19   1 H        0.924     0.069     2.101     2.267
    20   1 H        0.925     0.090     1.876     2.142
    21   1 H        0.926     0.047     2.361     2.403
    22   1 H        0.926     0.048     2.343     2.393
    23   1 H        0.926     0.056     2.249     2.345
    24   1 H        0.926     0.056     2.248     2.345
    25   1 H        0.926     0.049     2.330     2.387
    26   1 H        0.926     0.049     2.330     2.387
    27   1 H        0.925     0.030     2.588     2.516

Wiberg/Mayer (AO) data.
largest (>0.10) Wiberg bond orders for each atom

     #   Z sym  total        # sym  WBO       # sym  WBO       # sym  WBO
 ---------------------------------------------------------------------------
     1   7 N    3.660 --     2 C    0.936    14 H    0.920    15 H    0.918
                            16 H    0.822
     2   6 C    3.899 --     3 C    0.994    18 H    0.969    17 H    0.969
                             1 N    0.936
     3   6 C    3.979 --     4 C    1.004     2 C    0.994    19 H    0.969
                            20 H    0.962
     4   6 C    3.985 --     5 C    1.522    13 C    1.270     3 C    1.004
     5   6 C    3.991 --     4 C    1.522     6 C    1.288    21 H    0.965
                            12 C    0.111
     6   6 C    3.990 --     5 C    1.288     7 C    1.278    11 C    1.240
     7   6 C    3.990 --     8 C    1.558     6 C    1.278    22 H    0.967
                            10 C    0.117
     8   6 C    3.988 --     7 C    1.558     9 C    1.317    23 H    0.969
     9   6 C    3.988 --    10 C    1.559     8 C    1.317    24 H    0.969
    10   6 C    3.990 --     9 C    1.559    11 C    1.276    25 H    0.967
                             7 C    0.117
    11   6 C    3.991 --    12 C    1.293    10 C    1.276     6 C    1.240
    12   6 C    3.990 --    13 C    1.525    11 C    1.293    26 H    0.967
                             5 C    0.111
    13   6 C    3.988 --    12 C    1.525     4 C    1.270    27 H    0.957
    14   1 H    0.934 --     1 N    0.920
    15   1 H    0.932 --     1 N    0.918
    16   1 H    0.921 --     1 N    0.822
    17   1 H    0.989 --     2 C    0.969
    18   1 H    0.990 --     2 C    0.969
    19   1 H    0.995 --     3 C    0.969
    20   1 H    0.991 --     3 C    0.962
    21   1 H    0.997 --     5 C    0.965
    22   1 H    0.997 --     7 C    0.967
    23   1 H    0.996 --     8 C    0.969
    24   1 H    0.996 --     9 C    0.969
    25   1 H    0.997 --    10 C    0.967
    26   1 H    0.997 --    12 C    0.967
    27   1 H    0.999 --    13 C    0.957
 ---------------------------------------------------------------------------

molecular dipole:
                 x           y           z       tot (Debye)
 q only:        7.175      -0.042       0.943
   full:        7.165       0.153       0.989      18.389

           -------------------------------------------------
          | TOTAL ENERGY              -35.321504969878 Eh   |
          | GRADIENT NORM               0.000396408459 Eh/α |
          | HOMO-LUMO GAP               3.089756416963 eV   |
           -------------------------------------------------

 * finished run on 2023/01/23 at 13:51:57.263
