   * xtb version 6.5.1 (fef0646) compiled by 'conda@b96dff2e9fd6' on 2023-01-04
          program call               : xtb init.xyz --opt -c 0 -u 0 -P 16 --alpb water

   ID    Z sym.   atoms
    1    7 N      1
    2    6 C      2-13
    3   17 Cl     14
    4    1 H      15-28

      * Solvation model:               ALPB
        Solvent                        water
        Solvent mass                       1.8000E+01 g/mol
          :  Hamiltonian                  GFN2-xTB          :
 * total energy  :   -40.3274355 Eh     change       -0.7160423E-09 Eh
 * total energy  :   -40.3345007 Eh     change       -0.7065122E-02 Eh
 * total energy  :   -40.3363593 Eh     change       -0.1858609E-02 Eh
 * total energy  :   -40.3370863 Eh     change       -0.7270147E-03 Eh
 * total energy  :   -40.3377583 Eh     change       -0.6720057E-03 Eh
 * total energy  :   -40.3383388 Eh     change       -0.5805033E-03 Eh
 * total energy  :   -40.3388435 Eh     change       -0.5047089E-03 Eh
 * total energy  :   -40.3390825 Eh     change       -0.2390205E-03 Eh
 * total energy  :   -40.3391665 Eh     change       -0.8395930E-04 Eh
 * total energy  :   -40.3392365 Eh     change       -0.7005815E-04 Eh
 * total energy  :   -40.3409110 Eh     change       -0.2670143E-04 Eh
 * total energy  :   -40.3409417 Eh     change       -0.3071150E-04 Eh
 * total energy  :   -40.3409684 Eh     change       -0.2670125E-04 Eh
 * total energy  :   -40.3409819 Eh     change       -0.1350067E-04 Eh
 * total energy  :   -40.3409936 Eh     change       -0.1172439E-04 Eh
 * total energy  :   -40.3410113 Eh     change       -0.1768425E-04 Eh
 * total energy  :   -40.3410037 Eh     change        0.7591248E-05 Eh
 * total energy  :   -40.3410185 Eh     change       -0.1477506E-04 Eh
 * total energy  :   -40.3410223 Eh     change       -0.3831632E-05 Eh
   *** GEOMETRY OPTIMIZATION CONVERGED AFTER 44 ITERATIONS ***

 final structure:
================
28
 xtb: 6.5.1 (fef0646)
N            0.93817202658598       -0.37380651726797        0.23519885613299
C            2.40959912004742       -0.44752473886421        0.33080543025356
C            2.96008012635310       -1.30492456532601       -0.80860584057472
C            4.45873457490550       -1.20849230723024       -0.85970516728322
C            5.25890275907374       -2.16600707678412       -0.29470692625139
C            6.66458445432766       -2.05580499365058       -0.31983452111696
C            7.50372125174917       -3.03365069923721        0.25442181344301
C            8.86329823574623       -2.89781507458411        0.21573442957690
C            9.44723064345136       -1.77904050470435       -0.39955159475670
C            8.66091403347693       -0.81470098274652       -0.96607789917067
C            7.25549060386592       -0.92516799988172       -0.94147647734916
C            6.41213662196591        0.04930179052485       -1.51701818074461
C            5.05483413752319       -0.08892862310628       -1.47463542076436
Cl           0.24156690601675        0.74662723870091       -2.52774319216747
H            0.54215955193254        0.22422284966175        0.96341177200188
H            0.52243533115029       -1.30692875616643        0.28755635540712
H            0.67071468993410        0.03006701778183       -0.69942412335312
H            2.69939163927539       -0.86957011630687        1.29367444989343
H            2.81563083894776        0.56022128783773        0.24612028186462
H            2.53634053013901       -0.93657111464735       -1.74497395097988
H            2.66287796187870       -2.34479528103476       -0.67519122527086
H            4.82242516772957       -3.03416672000968        0.17764977835837
H            7.05184819416210       -3.89416787606663        0.72603481981510
H            9.50029184287163       -3.64988691632201        0.65741118109336
H           10.52323769478002       -1.68783109479691       -0.42174137363053
H            9.10516823802297        0.04801481261331       -1.44217500113652
H            6.86278960481480        0.90726515351850       -1.99566755379367
H            4.41626321927138        0.65687180810078       -1.92646071949811

          :  Hamiltonian                  GFN2-xTB          :
         :: total energy             -40.341022328234 Eh    ::
         :: gradient norm              0.000365520521 Eh/a0 ::
         :: HOMO-LUMO gap              3.236467412795 eV    ::
         :: SCC energy               -40.982437689261 Eh    ::
         :: -> dispersion             -0.025688133110 Eh    ::
         :: -> Gsolv                  -0.074519537460 Eh    ::
         :: repulsion energy           0.641476981141 Eh    ::

    * Orbital Energies and Occupations

         #    Occupation            Energy/Eh            Energy/eV
      -------------------------------------------------------------
         1        2.0000           -1.0065658             -27.3900
       ...           ...                  ...                  ...
        25        2.0000           -0.4626874             -12.5904
        26        2.0000           -0.4548246             -12.3764
        27        2.0000           -0.4429362             -12.0529
        28        2.0000           -0.4392390             -11.9523
        29        2.0000           -0.4299609             -11.6998
        30        2.0000           -0.4198183             -11.4238
        31        2.0000           -0.4125465             -11.2260
        32        2.0000           -0.4082417             -11.1088
        33        2.0000           -0.4030042             -10.9663
        34        2.0000           -0.4003968             -10.8954
        35        2.0000           -0.4001891             -10.8897
        36        2.0000           -0.3912638             -10.6468
        37        2.0000           -0.3726287             -10.1397 (HOMO)
        38                         -0.2536907              -6.9033 (LUMO)
        39                         -0.2230199              -6.0687
        40                         -0.1833079              -4.9881
        41                         -0.1409680              -3.8359
        42                         -0.0520951              -1.4176
        43                         -0.0246423              -0.6706
        44                          0.0784060               2.1335
        45                          0.1000316               2.7220
        46                          0.1047961               2.8516
        47                          0.1148615               3.1255
        48                          0.1168941               3.1809
       ...                                ...                  ...
        75                          0.7005002              19.0616
      -------------------------------------------------------------
                  HL-Gap            0.1189380 Eh            3.2365 eV

     #   Z          covCN         q      C6AA      α(0)
     1   7 N        3.484    -0.170    24.668     7.377
     2   6 C        3.734    -0.021    21.033     6.545
     3   6 C        3.810    -0.086    22.130     6.696
     4   6 C        2.968     0.014    27.688     8.631
     5   6 C        2.923    -0.053    29.304     8.877
     6   6 C        2.986     0.010    27.795     8.648
     7   6 C        2.918    -0.042    29.036     8.836
     8   6 C        2.916    -0.037    28.910     8.817
     9   6 C        2.916    -0.037    28.917     8.818
    10   6 C        2.918    -0.040    28.998     8.830
    11   6 C        2.987     0.007    27.857     8.658
    12   6 C        2.916    -0.041    29.015     8.833
    13   6 C        2.920    -0.042    29.035     8.836
    14  17 Cl       0.047    -0.947   124.885    17.008
    15   1 H        0.859     0.305     0.698     1.309
    16   1 H        0.859     0.299     0.716     1.325
    17   1 H        0.903     0.295     0.724     1.331
    18   1 H        0.924     0.106     1.736     2.060
    19   1 H        0.925     0.095     1.829     2.115
    20   1 H        0.924     0.070     2.086     2.259
    21   1 H        0.925     0.069     2.099     2.265
    22   1 H        0.926     0.049     2.337     2.391
    23   1 H        0.926     0.040     2.450     2.448
    24   1 H        0.926     0.033     2.547     2.495
    25   1 H        0.926     0.030     2.587     2.515
    26   1 H        0.926     0.029     2.596     2.520
    27   1 H        0.926     0.029     2.604     2.524
    28   1 H        0.926     0.035     2.514     2.479

Wiberg/Mayer (AO) data.
largest (>0.10) Wiberg bond orders for each atom

     #   Z sym  total        # sym  WBO       # sym  WBO       # sym  WBO
 ---------------------------------------------------------------------------
     1   7 N    3.643 --     2 C    0.970    16 H    0.896    15 H    0.893
                            17 H    0.832
     2   6 C    3.930 --     3 C    0.993     1 N    0.970    19 H    0.969
                            18 H    0.968
     3   6 C    3.990 --     4 C    1.009     2 C    0.993    21 H    0.971
                            20 H    0.963
     4   6 C    3.989 --     5 C    1.531    13 C    1.291     3 C    1.009
     5   6 C    3.989 --     4 C    1.531     6 C    1.279    22 H    0.965
                            12 C    0.114
     6   6 C    3.990 --     7 C    1.280     5 C    1.279    11 C    1.252
     7   6 C    3.989 --     8 C    1.556     6 C    1.280    23 H    0.968
                            10 C    0.118
     8   6 C    3.992 --     7 C    1.556     9 C    1.322    24 H    0.971
     9   6 C    3.990 --    10 C    1.555     8 C    1.322    25 H    0.971
    10   6 C    3.992 --     9 C    1.555    11 C    1.283    26 H    0.969
                             7 C    0.118
    11   6 C    3.990 --    10 C    1.283    12 C    1.274     6 C    1.252
    12   6 C    3.992 --    13 C    1.568    11 C    1.274    27 H    0.968
                             5 C    0.114
    13   6 C    3.991 --    12 C    1.568     4 C    1.291    28 H    0.969
    14  17 Cl   0.102
    15   1 H    0.906 --     1 N    0.893
    16   1 H    0.911 --     1 N    0.896
    17   1 H    0.913 --     1 N    0.832
    18   1 H    0.989 --     2 C    0.968
    19   1 H    0.991 --     2 C    0.969
    20   1 H    0.994 --     3 C    0.963
    21   1 H    0.995 --     3 C    0.971
    22   1 H    0.997 --     5 C    0.965
    23   1 H    0.998 --     7 C    0.968
    24   1 H    0.998 --     8 C    0.971
    25   1 H    0.999 --     9 C    0.971
    26   1 H    0.999 --    10 C    0.969
    27   1 H    0.998 --    12 C    0.968
    28   1 H    0.998 --    13 C    0.969
 ---------------------------------------------------------------------------

molecular dipole:
                 x           y           z       tot (Debye)
 q only:        1.133      -2.119       4.938
   full:        0.879      -1.776       4.245      11.908

           -------------------------------------------------
          | TOTAL ENERGY              -40.341022328234 Eh   |
          | GRADIENT NORM               0.000365520521 Eh/α |
          | HOMO-LUMO GAP               3.236467412795 eV   |
           -------------------------------------------------

 * finished run on 2023/01/24 at 15:28:22.455
