   * xtb version 6.5.1 (fef0646) compiled by 'conda@b96dff2e9fd6' on 2023-01-04
          program call               : xtb init.xyz --opt -c 0 -u 0 -P 16 --input xtb.inp

   ID    Z sym.   atoms
    1    7 N      1
    2    6 C      2-13
    3   17 Cl     14
    4    1 H      15-28

          :  Hamiltonian                  GFN2-xTB          :
 * total energy  :   -40.2607155 Eh     change       -0.1762501E-09 Eh
 * total energy  :   -40.2636906 Eh     change       -0.2975078E-02 Eh
 * total energy  :   -40.2677177 Eh     change       -0.4027135E-02 Eh
 * total energy  :   -40.2694174 Eh     change       -0.1699646E-02 Eh
 * total energy  :   -40.2752387 Eh     change       -0.5821329E-02 Eh
 * total energy  :   -40.2789145 Eh     change       -0.3675784E-02 Eh
 * total energy  :   -40.2818499 Eh     change       -0.2935452E-02 Eh
 * total energy  :   -40.2868749 Eh     change       -0.5024986E-02 Eh
 * total energy  :   -40.2903507 Eh     change       -0.3475742E-02 Eh
 * total energy  :   -40.2919766 Eh     change       -0.1625924E-02 Eh
 * total energy  :   -40.2971366 Eh     change       -0.3943435E-04 Eh
 * total energy  :   -40.2971845 Eh     change       -0.4794625E-04 Eh
 * total energy  :   -40.2972100 Eh     change       -0.2543202E-04 Eh
 * total energy  :   -40.2972479 Eh     change       -0.3796171E-04 Eh
 * total energy  :   -40.2972710 Eh     change       -0.2308486E-04 Eh
 * total energy  :   -40.2972944 Eh     change       -0.2339221E-04 Eh
 * total energy  :   -40.2973104 Eh     change       -0.1598584E-04 Eh
 * total energy  :   -40.2973231 Eh     change       -0.1272730E-04 Eh
 * total energy  :   -40.2973281 Eh     change       -0.4990427E-05 Eh
   *** GEOMETRY OPTIMIZATION CONVERGED AFTER 33 ITERATIONS ***

 final structure:
================
28
 xtb: 6.5.1 (fef0646)
N            1.05306513824828       -0.29649618148189        0.25179355563691
C            2.50916437230601       -0.34406688038127        0.18710247633732
C            3.18489679581609       -0.58220467765454        1.54764941669677
C            4.67755736950077       -0.62441998457701        1.38676694269666
C            5.43099172545975        0.51628620744818        1.47841350892301
C            6.82737025154714        0.49099159297024        1.28904511645665
C            7.61731787140972        1.65643659876963        1.37951948399699
C            8.96933177113702        1.59898791521672        1.19073213093552
C            9.59498759233090        0.37468327150688        0.90513068942811
C            8.85720014523054       -0.77171352543553        0.81069678085728
C            7.45963392618654       -0.74537166844552        0.99720628682542
C            6.66444390130334       -1.90658700336647        0.90405150374781
C            5.31348572041663       -1.84600653923897        1.09040318822935
Cl          -0.07119984517709        0.25813621109110       -2.41740020362867
H            0.44434880961512       -0.00306739433431       -1.18643363836554
H            0.74487067521703        0.44557442756906        0.87206309916481
H            0.67801199839959       -1.17581606400268        0.59270053688590
H            2.85564245282704        0.60342584349191       -0.23090824206448
H            2.78714913659918       -1.14072024086262       -0.50605206882872
H            2.82776889511773       -1.52724570882771        1.96527647577927
H            2.90565382521825        0.22391783191771        2.23086858909851
H            4.95902287555061        1.46298290892386        1.70381038759594
H            7.13129049776442        2.59653272896889        1.59986669280705
H            9.56876970603083        2.49507982065060        1.25970181472787
H           10.66524368629050        0.34916254627788        0.76035158665571
H            9.33332991733326       -1.71683569236591        0.59049063725369
H            7.14571494731847       -2.84839807656402        0.68167106516859
H            4.71407584100078       -2.74249826726420        1.01740218698190

          :  Hamiltonian                  GFN2-xTB          :
         :: total energy             -40.297328124039 Eh    ::
         :: gradient norm              0.000870968986 Eh/a0 ::
         :: HOMO-LUMO gap              3.213415335029 eV    ::
         :: SCC energy               -40.930732854644 Eh    ::
         :: -> dispersion             -0.025647592895 Eh    ::
         :: repulsion energy           0.633464374261 Eh    ::

    * Orbital Energies and Occupations

         #    Occupation            Energy/Eh            Energy/eV
      -------------------------------------------------------------
         1        2.0000           -1.0191271             -27.7319
       ...           ...                  ...                  ...
        25        2.0000           -0.4737039             -12.8901
        26        2.0000           -0.4670317             -12.7086
        27        2.0000           -0.4555188             -12.3953
        28        2.0000           -0.4525332             -12.3141
        29        2.0000           -0.4438593             -12.0780
        30        2.0000           -0.4295560             -11.6888
        31        2.0000           -0.4235299             -11.5248
        32        2.0000           -0.4185539             -11.3894
        33        2.0000           -0.4075829             -11.0909
        34        2.0000           -0.3975612             -10.8182
        35        2.0000           -0.3961433             -10.7796
        36        2.0000           -0.3961266             -10.7792
        37        2.0000           -0.3814430             -10.3796 (HOMO)
        38                         -0.2633522              -7.1662 (LUMO)
        39                         -0.2324145              -6.3243
        40                         -0.1926089              -5.2412
        41                         -0.1505638              -4.0970
        42                         -0.0618443              -1.6829
        43                         -0.0576658              -1.5692
        44                          0.0207657               0.5651
        45                          0.0642236               1.7476
        46                          0.0642483               1.7483
        47                          0.0702034               1.9103
        48                          0.0702047               1.9104
       ...                                ...                  ...
        75                          0.6930122              18.8578
      -------------------------------------------------------------
                  HL-Gap            0.1180908 Eh            3.2134 eV

     #   Z          covCN         q      C6AA      α(0)
     1   7 N        2.670    -0.310    27.965     7.854
     2   6 C        3.734     0.005    20.579     6.475
     3   6 C        3.807    -0.071    21.850     6.654
     4   6 C        2.968     0.007    27.850     8.656
     5   6 C        2.924    -0.046    29.140     8.853
     6   6 C        2.986     0.013    27.723     8.637
     7   6 C        2.918    -0.035    28.876     8.812
     8   6 C        2.916    -0.029    28.733     8.790
     9   6 C        2.916    -0.030    28.747     8.792
    10   6 C        2.918    -0.034    28.855     8.809
    11   6 C        2.988     0.011    27.763     8.643
    12   6 C        2.917    -0.036    28.888     8.814
    13   6 C        2.920    -0.039    28.978     8.828
    14  17 Cl       0.839    -0.469   114.569    16.375
    15   1 H        0.880     0.331     0.627     1.239
    16   1 H        0.860     0.166     1.297     1.784
    17   1 H        0.860     0.166     1.299     1.785
    18   1 H        0.924     0.054     2.269     2.356
    19   1 H        0.924     0.054     2.274     2.358
    20   1 H        0.924     0.037     2.484     2.465
    21   1 H        0.924     0.037     2.491     2.468
    22   1 H        0.925     0.031     2.577     2.511
    23   1 H        0.926     0.031     2.570     2.507
    24   1 H        0.926     0.031     2.574     2.509
    25   1 H        0.926     0.031     2.575     2.509
    26   1 H        0.926     0.032     2.564     2.504
    27   1 H        0.926     0.033     2.538     2.491
    28   1 H        0.926     0.030     2.587     2.515

Wiberg/Mayer (AO) data.
largest (>0.10) Wiberg bond orders for each atom

     #   Z sym  total        # sym  WBO       # sym  WBO       # sym  WBO
 ---------------------------------------------------------------------------
     1   7 N    3.226 --     2 C    1.011    17 H    0.959    16 H    0.958
                            15 H    0.186
     2   6 C    3.970 --     1 N    1.011     3 C    0.981    19 H    0.974
                            18 H    0.974
     3   6 C    3.996 --     4 C    1.009     2 C    0.981    21 H    0.973
                            20 H    0.973
     4   6 C    3.988 --     5 C    1.527    13 C    1.295     3 C    1.009
     5   6 C    3.991 --     4 C    1.527     6 C    1.283    22 H    0.966
                            12 C    0.115
     6   6 C    3.990 --     5 C    1.283     7 C    1.278    11 C    1.251
     7   6 C    3.990 --     8 C    1.558     6 C    1.278    23 H    0.968
                            10 C    0.118
     8   6 C    3.992 --     7 C    1.558     9 C    1.320    24 H    0.971
     9   6 C    3.990 --    10 C    1.557     8 C    1.320    25 H    0.971
    10   6 C    3.992 --     9 C    1.557    11 C    1.281    26 H    0.968
                             7 C    0.118
    11   6 C    3.990 --    10 C    1.281    12 C    1.277     6 C    1.251
    12   6 C    3.992 --    13 C    1.564    11 C    1.277    27 H    0.968
                             5 C    0.115
    13   6 C    3.992 --    12 C    1.564     4 C    1.295    28 H    0.969
    14  17 Cl   0.781 --    15 H    0.702
    15   1 H    0.890 --    14 Cl   0.702     1 N    0.186
    16   1 H    0.972 --     1 N    0.958
    17   1 H    0.972 --     1 N    0.959
    18   1 H    0.997 --     2 C    0.974
    19   1 H    0.997 --     2 C    0.974
    20   1 H    0.998 --     3 C    0.973
    21   1 H    0.998 --     3 C    0.973
    22   1 H    0.999 --     5 C    0.966
    23   1 H    0.999 --     7 C    0.968
    24   1 H    0.999 --     8 C    0.971
    25   1 H    0.999 --     9 C    0.971
    26   1 H    0.999 --    10 C    0.968
    27   1 H    0.998 --    12 C    0.968
    28   1 H    0.999 --    13 C    0.969
 ---------------------------------------------------------------------------

molecular dipole:
                 x           y           z       tot (Debye)
 q only:        0.855      -0.353       1.714
   full:        0.717      -0.338       1.669       4.697

           -------------------------------------------------
          | TOTAL ENERGY              -40.297328124039 Eh   |
          | GRADIENT NORM               0.000870968986 Eh/α |
          | HOMO-LUMO GAP               3.213415335029 eV   |
           -------------------------------------------------

 * finished run on 2023/01/23 at 19:07:27.745
