   * xtb version 6.5.1 (fef0646) compiled by 'conda@b96dff2e9fd6' on 2023-01-04
          program call               : xtb init.xyz --opt -c 0 -u 0 -P 16 --alpb water

   ID    Z sym.   atoms
    1    7 N      1
    2    6 C      2-5
    3   35 Br     6
    4   17 Cl     7
    5    1 H      8-18

      * Solvation model:               ALPB
        Solvent                        water
        Solvent mass                       1.8000E+01 g/mol
          :  Hamiltonian                  GFN2-xTB          :
 * total energy  :   -25.7599541 Eh     change       -0.3069225E-09 Eh
 * total energy  :   -25.7646308 Eh     change       -0.4676725E-02 Eh
 * total energy  :   -25.7659861 Eh     change       -0.1355275E-02 Eh
 * total energy  :   -25.7665394 Eh     change       -0.5532986E-03 Eh
 * total energy  :   -25.7671416 Eh     change       -0.6022079E-03 Eh
 * total energy  :   -25.7680599 Eh     change       -0.9183028E-03 Eh
 * total energy  :   -25.7686337 Eh     change       -0.5738027E-03 Eh
 * total energy  :   -25.7689482 Eh     change       -0.3144901E-03 Eh
 * total energy  :   -25.7690810 Eh     change       -0.1327811E-03 Eh
 * total energy  :   -25.7691870 Eh     change       -0.1059810E-03 Eh
 * total energy  :   -25.7699503 Eh     change       -0.5898600E-04 Eh
 * total energy  :   -25.7699918 Eh     change       -0.4146830E-04 Eh
 * total energy  :   -25.7700107 Eh     change       -0.1891975E-04 Eh
 * total energy  :   -25.7700305 Eh     change       -0.1982098E-04 Eh
 * total energy  :   -25.7700426 Eh     change       -0.1204551E-04 Eh
 * total energy  :   -25.7700496 Eh     change       -0.6985961E-05 Eh
 * total energy  :   -25.7700566 Eh     change       -0.7002448E-05 Eh
 * total energy  :   -25.7700652 Eh     change       -0.8683326E-05 Eh
 * total energy  :   -25.7700695 Eh     change       -0.4245773E-05 Eh
   *** GEOMETRY OPTIMIZATION CONVERGED AFTER 27 ITERATIONS ***

 final structure:
================
18
 xtb: 6.5.1 (fef0646)
N            0.94342160026542        0.37204484402191        0.04268553622646
C            2.41433274578305        0.29307633743418       -0.03166446478823
C            3.03749431274338        1.68458010552126       -0.10558002312754
C            4.56315292532717        1.58682299103419       -0.16381851698616
C            5.18146059689525        2.97084316629760       -0.24639602085979
Br           7.16330585506603        2.86993799442736       -0.31305680223770
Cl          -0.17303865660797       -2.45178902470501        0.08905198721829
H            0.53231310850254       -0.59812866154348        0.07169206013550
H            0.55675293748692        0.84216837292212       -0.77941616023894
H            0.64079739126264        0.86105668852257        0.88870699182861
H            2.68452913745919       -0.29229208090260       -0.91030841529104
H            2.77672314026783       -0.24054221730013        0.84666983626565
H            2.75345750496022        2.26648896470748        0.77173283726828
H            2.68175785243883        2.20419615965131       -0.99569561835115
H            4.86426382339664        1.00167012757227       -1.03474174217363
H            4.93583269830097        1.07444431082653        0.72506004964976
H            4.95198215964018        3.57518748839410        0.62972848056022
H            4.88675086681125        3.49810443311806       -1.15238001509900

          :  Hamiltonian                  GFN2-xTB          :
         :: total energy             -25.770069482651 Eh    ::
         :: gradient norm              0.000580024740 Eh/a0 ::
         :: HOMO-LUMO gap              4.938796419849 eV    ::
         :: SCC energy               -26.006523313116 Eh    ::
         :: -> dispersion             -0.010211212140 Eh    ::
         :: -> Gsolv                  -0.078465462622 Eh    ::
         :: repulsion energy           0.236513265023 Eh    ::

    * Orbital Energies and Occupations

         #    Occupation            Energy/Eh            Energy/eV
      -------------------------------------------------------------
         1        2.0000           -1.0075920             -27.4180
       ...           ...                  ...                  ...
        11        2.0000           -0.5382988             -14.6479
        12        2.0000           -0.5059156             -13.7667
        13        2.0000           -0.5009896             -13.6326
        14        2.0000           -0.4956924             -13.4885
        15        2.0000           -0.4645196             -12.6402
        16        2.0000           -0.4607452             -12.5375
        17        2.0000           -0.4592878             -12.4979
        18        2.0000           -0.4377937             -11.9130
        19        2.0000           -0.4092059             -11.1351
        20        2.0000           -0.4072036             -11.0806
        21        2.0000           -0.4043298             -11.0024
        22        2.0000           -0.4011423             -10.9156
        23        2.0000           -0.4010986             -10.9144 (HOMO)
        24                         -0.2196012              -5.9757 (LUMO)
        25                         -0.0310418              -0.8447
        26                          0.0244805               0.6661
        27                          0.0388445               1.0570
        28                          0.0449883               1.2242
        29                          0.0542509               1.4762
        30                          0.0777376               2.1153
        31                          0.0792990               2.1578
        32                          0.0946041               2.5743
        33                          0.1014927               2.7618
        34                          0.1157488               3.1497
       ...                                ...                  ...
        49                          0.3465042               9.4289
      -------------------------------------------------------------
                  HL-Gap            0.1814974 Eh            4.9388 eV

     #   Z          covCN         q      C6AA      α(0)
     1   7 N        3.483    -0.168    24.625     7.370
     2   6 C        3.733    -0.025    21.104     6.557
     3   6 C        3.804    -0.086    22.130     6.697
     4   6 C        3.851    -0.069    21.778     6.638
     5   6 C        3.739     0.017    20.363     6.439
     6  35 Br       0.962    -0.260   192.278    22.358
     7  17 Cl       0.064    -0.944   124.757    16.999
     8   1 H        0.920     0.297     0.717     1.324
     9   1 H        0.859     0.299     0.716     1.326
    10   1 H        0.859     0.299     0.715     1.325
    11   1 H        0.925     0.099     1.791     2.093
    12   1 H        0.925     0.100     1.786     2.090
    13   1 H        0.924     0.076     2.025     2.225
    14   1 H        0.924     0.075     2.032     2.229
    15   1 H        0.924     0.062     2.173     2.305
    16   1 H        0.924     0.063     2.169     2.303
    17   1 H        0.926     0.082     1.960     2.189
    18   1 H        0.926     0.082     1.963     2.191

Wiberg/Mayer (AO) data.
largest (>0.10) Wiberg bond orders for each atom

     #   Z sym  total        # sym  WBO       # sym  WBO       # sym  WBO
 ---------------------------------------------------------------------------
     1   7 N    3.644 --     2 C    0.972    10 H    0.895     9 H    0.895
                             8 H    0.826
     2   6 C    3.929 --     3 C    1.007     1 N    0.972    11 H    0.967
                            12 H    0.967
     3   6 C    3.989 --     2 C    1.007     4 C    0.996    14 H    0.972
                            13 H    0.972
     4   6 C    3.989 --     5 C    1.016     3 C    0.996    15 H    0.974
                            16 H    0.974
     5   6 C    3.926 --     4 C    1.016    18 H    0.973    17 H    0.973
                             6 Br   0.946
     6  35 Br   0.997 --     5 C    0.946
     7  17 Cl   0.109
     8   1 H    0.911 --     1 N    0.826
     9   1 H    0.911 --     1 N    0.895
    10   1 H    0.910 --     1 N    0.895
    11   1 H    0.990 --     2 C    0.967
    12   1 H    0.990 --     2 C    0.967
    13   1 H    0.994 --     3 C    0.972
    14   1 H    0.994 --     3 C    0.972
    15   1 H    0.996 --     4 C    0.974
    16   1 H    0.996 --     4 C    0.974
    17   1 H    0.993 --     5 C    0.973
    18   1 H    0.993 --     5 C    0.973
 ---------------------------------------------------------------------------

molecular dipole:
                 x           y           z       tot (Debye)
 q only:        0.915       4.950      -0.042
   full:        0.308       4.362      -0.025      11.114

           -------------------------------------------------
          | TOTAL ENERGY              -25.770069482651 Eh   |
          | GRADIENT NORM               0.000580024740 Eh/α |
          | HOMO-LUMO GAP               4.938796419849 eV   |
           -------------------------------------------------

 * finished run on 2023/01/24 at 16:01:37.162
