   * xtb version 6.5.1 (fef0646) compiled by 'conda@b96dff2e9fd6' on 2023-01-04
          program call               : xtb init.xyz --opt -c 0 -u 0 -P 16 --alpb water

   ID    Z sym.   atoms
    1    7 N      1
    2    6 C      2-7
    3   17 Cl     8
    4    1 H      9-16

      * Solvation model:               ALPB
        Solvent                        water
        Solvent mass                       1.8000E+01 g/mol
          :  Hamiltonian                  GFN2-xTB          :
 * total energy  :   -24.4086545 Eh     change       -0.3410570E-09 Eh
 * total energy  :   -24.4121062 Eh     change       -0.3451615E-02 Eh
 * total energy  :   -24.4127890 Eh     change       -0.6828282E-03 Eh
 * total energy  :   -24.4130738 Eh     change       -0.2848115E-03 Eh
 * total energy  :   -24.4132007 Eh     change       -0.1268569E-03 Eh
 * total energy  :   -24.4132540 Eh     change       -0.5332487E-04 Eh
 * total energy  :   -24.4132880 Eh     change       -0.3396558E-04 Eh
 * total energy  :   -24.4133063 Eh     change       -0.1835806E-04 Eh
 * total energy  :   -24.4133155 Eh     change       -0.9209734E-05 Eh
 * total energy  :   -24.4133199 Eh     change       -0.4371775E-05 Eh
   *** GEOMETRY OPTIMIZATION CONVERGED AFTER 10 ITERATIONS ***

 final structure:
================
16
 xtb: 6.5.1 (fef0646)
N            2.21470077829368       -0.03528512126361       -0.20902403249319
C            0.76386195613852       -0.02676092481674       -0.19159264872045
C            0.06129594139346       -1.21943877257487       -0.18069956164247
C           -1.32422062240817       -1.19806069253782       -0.16512948069402
C           -2.00042148769056        0.00980245629192       -0.16099720799800
C           -1.29160301174412        1.20079479798260       -0.16725266456452
C            0.09211398594316        1.18548381144133       -0.18301055628559
Cl           3.38503309625996        1.20454591955861        2.26605426755711
H            2.58300311678629       -0.98680909891409       -0.29411530843245
H            2.60656801801197        0.37840820758149        0.69205198732334
H            2.58727019514595        0.55446771351182       -0.95965867530701
H            0.58371784196109       -2.16283945421978       -0.17915839257252
H           -1.87470057164327       -2.12551139858278       -0.15551475504850
H           -3.07898359408292        0.02501510464431       -0.14907821550833
H           -1.81739063726577        2.14267644871360       -0.15771099775810
H            0.65113499490087        2.10743100318400       -0.16968375785553

          :  Hamiltonian                  GFN2-xTB          :
         :: total energy             -24.413319892599 Eh    ::
         :: gradient norm              0.000667386160 Eh/a0 ::
         :: HOMO-LUMO gap              4.618603894330 eV    ::
         :: SCC energy               -24.770026182060 Eh    ::
         :: -> dispersion             -0.011535611240 Eh    ::
         :: -> Gsolv                  -0.066791958537 Eh    ::
         :: repulsion energy           0.356669484251 Eh    ::

    * Orbital Energies and Occupations

         #    Occupation            Energy/Eh            Energy/eV
      -------------------------------------------------------------
         1        2.0000           -1.0097713             -27.4773
       ...           ...                  ...                  ...
        10        2.0000           -0.5509840             -14.9930
        11        2.0000           -0.5168088             -14.0631
        12        2.0000           -0.4939765             -13.4418
        13        2.0000           -0.4890854             -13.3087
        14        2.0000           -0.4809734             -13.0880
        15        2.0000           -0.4805007             -13.0751
        16        2.0000           -0.4386304             -11.9357
        17        2.0000           -0.4269938             -11.6191
        18        2.0000           -0.4154621             -11.3053
        19        2.0000           -0.4105048             -11.1704
        20        2.0000           -0.4020034             -10.9391
        21        2.0000           -0.4018461             -10.9348
        22        2.0000           -0.3995265             -10.8717 (HOMO)
        23                         -0.2297959              -6.2531 (LUMO)
        24                         -0.2288716              -6.2279
        25                         -0.0992712              -2.7013
        26                         -0.0225270              -0.6130
        27                          0.0779112               2.1201
        28                          0.0975143               2.6535
        29                          0.1125773               3.0634
        30                          0.1126894               3.0664
        31                          0.1152704               3.1367
        32                          0.1152794               3.1369
        33                          0.1362692               3.7081
       ...                                ...                  ...
        45                          0.6597205              17.9519
      -------------------------------------------------------------
                  HL-Gap            0.1697306 Eh            4.6186 eV

     #   Z          covCN         q      C6AA      α(0)
     1   7 N        3.486    -0.176    24.806     7.397
     2   6 C        2.904     0.077    26.274     8.405
     3   6 C        2.921    -0.048    29.190     8.860
     4   6 C        2.921    -0.030    28.754     8.793
     5   6 C        2.919    -0.034    28.848     8.808
     6   6 C        2.921    -0.029    28.713     8.787
     7   6 C        2.921    -0.043    29.068     8.841
     8  17 Cl       0.101    -0.931   124.281    16.967
     9   1 H        0.859     0.303     0.705     1.315
    10   1 H        0.956     0.308     0.683     1.292
    11   1 H        0.859     0.309     0.686     1.298
    12   1 H        0.926     0.073     2.048     2.238
    13   1 H        0.926     0.056     2.242     2.341
    14   1 H        0.926     0.049     2.339     2.391
    15   1 H        0.926     0.050     2.321     2.382
    16   1 H        0.926     0.065     2.142     2.289

Wiberg/Mayer (AO) data.
largest (>0.10) Wiberg bond orders for each atom

     #   Z sym  total        # sym  WBO       # sym  WBO       # sym  WBO
 ---------------------------------------------------------------------------
     1   7 N    3.639 --     2 C    0.977     9 H    0.890    11 H    0.882
                            10 H    0.794
     2   6 C    3.944 --     3 C    1.419     7 C    1.407     1 N    0.977
                             5 C    0.106
     3   6 C    3.988 --     4 C    1.434     2 C    1.419    12 H    0.963
                             6 C    0.111
     4   6 C    3.991 --     5 C    1.445     3 C    1.434    13 H    0.969
                             7 C    0.114
     5   6 C    3.991 --     4 C    1.445     6 C    1.436    14 H    0.970
                             2 C    0.106
     6   6 C    3.991 --     7 C    1.446     5 C    1.436    15 H    0.970
                             3 C    0.111
     7   6 C    3.990 --     6 C    1.446     2 C    1.407    16 H    0.965
                             4 C    0.114
     8  17 Cl   0.132
     9   1 H    0.908 --     1 N    0.890
    10   1 H    0.905 --     1 N    0.794
    11   1 H    0.904 --     1 N    0.882
    12   1 H    0.995 --     3 C    0.963
    13   1 H    0.997 --     4 C    0.969
    14   1 H    0.997 --     5 C    0.970
    15   1 H    0.997 --     6 C    0.970
    16   1 H    0.996 --     7 C    0.965
 ---------------------------------------------------------------------------

molecular dipole:
                 x           y           z       tot (Debye)
 q only:       -2.304      -2.179      -4.303
   full:       -1.912      -1.857      -3.683      11.556

           -------------------------------------------------
          | TOTAL ENERGY              -24.413319892599 Eh   |
          | GRADIENT NORM               0.000667386160 Eh/α |
          | HOMO-LUMO GAP               4.618603894330 eV   |
           -------------------------------------------------

 * finished run on 2023/01/24 at 14:55:51.734
