   * xtb version 6.5.1 (fef0646) compiled by 'conda@b96dff2e9fd6' on 2023-01-04
          program call               : xtb init.xyz --opt -c 0 -u 0 -P 16 --alpb water

   ID    Z sym.   atoms
    1    7 N      1
    2    6 C      2-5
    3    8 O      6
    4   17 Cl     7
    5    1 H      8-19

      * Solvation model:               ALPB
        Solvent                        water
        Solvent mass                       1.8000E+01 g/mol
          :  Hamiltonian                  GFN2-xTB          :
 * total energy  :   -26.2533312 Eh     change       -0.4080576E-09 Eh
 * total energy  :   -26.2565149 Eh     change       -0.3183721E-02 Eh
 * total energy  :   -26.2574472 Eh     change       -0.9323477E-03 Eh
 * total energy  :   -26.2577492 Eh     change       -0.3019317E-03 Eh
 * total energy  :   -26.2579503 Eh     change       -0.2011327E-03 Eh
 * total energy  :   -26.2580935 Eh     change       -0.1432259E-03 Eh
 * total energy  :   -26.2581886 Eh     change       -0.9511196E-04 Eh
 * total energy  :   -26.2582283 Eh     change       -0.3965332E-04 Eh
 * total energy  :   -26.2582591 Eh     change       -0.3077645E-04 Eh
 * total energy  :   -26.2583096 Eh     change       -0.5053417E-04 Eh
 * total energy  :   -26.2583380 Eh     change       -0.2841450E-04 Eh
 * total energy  :   -26.2583631 Eh     change       -0.2504378E-04 Eh
 * total energy  :   -26.2583716 Eh     change       -0.8487060E-05 Eh
 * total energy  :   -26.2583694 Eh     change        0.2191804E-05 Eh
 * total energy  :   -26.2583763 Eh     change       -0.6914292E-05 Eh
 * total energy  :   -26.2583821 Eh     change       -0.5817259E-05 Eh
 * total energy  :   -26.2583896 Eh     change       -0.7470616E-05 Eh
 * total energy  :   -26.2583965 Eh     change       -0.6960302E-05 Eh
 * total energy  :   -26.2584005 Eh     change       -0.4009976E-05 Eh
   *** GEOMETRY OPTIMIZATION CONVERGED AFTER 19 ITERATIONS ***

 final structure:
================
19
 xtb: 6.5.1 (fef0646)
N            1.06088266493833        0.14388692413721        0.44456517123285
C            2.53476435552443        0.06867960283517        0.49322711617210
C            2.99865446217061       -1.31297425375519        0.04871345552031
C            4.52001560643526       -1.38597266017483       -0.04803711410226
C            4.98070172108477       -2.77110534006531       -0.50433289831879
O            6.38729123828124       -2.89204116646105       -0.56079818827789
Cl           0.12105721919106       -0.47660571656436       -2.39928500571049
H            0.72206344470453        1.07456130584910        0.69827915691745
H            0.63878752906829       -0.55764742337506        1.05789846671513
H            0.72953734430246       -0.06175230527165       -0.53321879995438
H            2.87969516678459        0.27623504179435        1.50687257836033
H            2.94024404410027        0.81937633450236       -0.18456654628623
H            2.55942843585352       -1.52955497347332       -0.92715938427454
H            2.65018751191467       -2.07136825106667        0.75049588760006
H            4.97164652119633       -1.17240379084382        0.92235319861117
H            4.87696337797290       -0.63977775389665       -0.76125226388705
H            4.53800895769602       -3.00957529784083       -1.48183985521698
H            4.65788693789658       -3.53302260337786        0.20968537943335
H            6.73240346088495       -2.25190767295184       -1.19766035453358

          :  Hamiltonian                  GFN2-xTB          :
         :: total energy             -26.258400537029 Eh    ::
         :: gradient norm              0.000524586453 Eh/a0 ::
         :: HOMO-LUMO gap             10.089413216484 eV    ::
         :: SCC energy               -26.511604675902 Eh    ::
         :: -> dispersion             -0.010072358009 Eh    ::
         :: -> Gsolv                  -0.081456143305 Eh    ::
         :: repulsion energy           0.253181404824 Eh    ::

    * Orbital Energies and Occupations

         #    Occupation            Energy/Eh            Energy/eV
      -------------------------------------------------------------
         1        2.0000           -1.0068473             -27.3977
       ...           ...                  ...                  ...
        11        2.0000           -0.5376774             -14.6309
        12        2.0000           -0.5174628             -14.0809
        13        2.0000           -0.5107552             -13.8984
        14        2.0000           -0.4958926             -13.4939
        15        2.0000           -0.4716312             -12.8337
        16        2.0000           -0.4629192             -12.5967
        17        2.0000           -0.4506350             -12.2624
        18        2.0000           -0.4378992             -11.9158
        19        2.0000           -0.4253518             -11.5744
        20        2.0000           -0.4081008             -11.1050
        21        2.0000           -0.4033722             -10.9763
        22        2.0000           -0.4009851             -10.9114
        23        2.0000           -0.4006583             -10.9025 (HOMO)
        24                         -0.0298791              -0.8131 (LUMO)
        25                          0.0455369               1.2391
        26                          0.0778762               2.1191
        27                          0.0886601               2.4126
        28                          0.0981253               2.6701
        29                          0.1149516               3.1280
        30                          0.1166682               3.1747
        31                          0.1180731               3.2129
        32                          0.1189778               3.2376
        33                          0.1199763               3.2647
        34                          0.1378942               3.7523
       ...                                ...                  ...
        45                          0.3138429               8.5401
      -------------------------------------------------------------
                  HL-Gap            0.3707791 Eh           10.0894 eV

     #   Z          covCN         q      C6AA      α(0)
     1   7 N        3.484    -0.171    24.681     7.379
     2   6 C        3.733    -0.027    21.143     6.563
     3   6 C        3.804    -0.080    22.032     6.682
     4   6 C        3.801    -0.081    22.042     6.684
     5   6 C        3.675     0.078    19.495     6.327
     6   8 O        1.655    -0.521    23.348     6.523
     7  17 Cl       0.049    -0.947   124.888    17.008
     8   1 H        0.859     0.306     0.697     1.308
     9   1 H        0.859     0.298     0.720     1.330
    10   1 H        0.905     0.294     0.727     1.334
    11   1 H        0.924     0.108     1.717     2.049
    12   1 H        0.925     0.099     1.795     2.095
    13   1 H        0.924     0.058     2.217     2.329
    14   1 H        0.924     0.062     2.174     2.306
    15   1 H        0.924     0.061     2.189     2.314
    16   1 H        0.924     0.047     2.353     2.399
    17   1 H        0.923     0.016     2.792     2.613
    18   1 H        0.924     0.047     2.360     2.402
    19   1 H        0.805     0.353     0.581     1.197

Wiberg/Mayer (AO) data.
largest (>0.10) Wiberg bond orders for each atom

     #   Z sym  total        # sym  WBO       # sym  WBO       # sym  WBO
 ---------------------------------------------------------------------------
     1   7 N    3.644 --     2 C    0.970     9 H    0.896     8 H    0.893
                            10 H    0.832
     2   6 C    3.931 --     3 C    1.010     1 N    0.970    12 H    0.968
                            11 H    0.967
     3   6 C    3.992 --     2 C    1.010     4 C    1.005    14 H    0.974
                            13 H    0.972
     4   6 C    3.994 --     3 C    1.005     5 C    0.998    16 H    0.975
                            15 H    0.975
     5   6 C    3.950 --     4 C    0.998     6 O    0.993    18 H    0.973
                            17 H    0.972
     6   8 O    1.910 --     5 C    0.993    19 H    0.862
     7  17 Cl   0.102
     8   1 H    0.906 --     1 N    0.893
     9   1 H    0.911 --     1 N    0.896
    10   1 H    0.913 --     1 N    0.832
    11   1 H    0.988 --     2 C    0.967
    12   1 H    0.990 --     2 C    0.968
    13   1 H    0.997 --     3 C    0.972
    14   1 H    0.996 --     3 C    0.974
    15   1 H    0.996 --     4 C    0.975
    16   1 H    0.998 --     4 C    0.975
    17   1 H    1.000 --     5 C    0.972
    18   1 H    0.998 --     5 C    0.973
    19   1 H    0.875 --     6 O    0.862
 ---------------------------------------------------------------------------

molecular dipole:
                 x           y           z       tot (Debye)
 q only:        1.578       1.622       4.776
   full:        1.133       1.585       3.979      11.262

           -------------------------------------------------
          | TOTAL ENERGY              -26.258400537029 Eh   |
          | GRADIENT NORM               0.000524586453 Eh/α |
          | HOMO-LUMO GAP              10.089413216484 eV   |
           -------------------------------------------------

 * finished run on 2023/01/24 at 14:58:03.218
