   * xtb version 6.5.1 (fef0646) compiled by 'conda@b96dff2e9fd6' on 2023-01-04
          program call               : xtb init.xyz --opt -c 1 -u 0 -P 16 --alpb water

   ID    Z sym.   atoms
    1    7 N      1
    2    6 C      2-19
    3   16 S      20-23
    4    1 H      24-39

      * Solvation model:               ALPB
        Solvent                        water
        Solvent mass                       1.8000E+01 g/mol
          :  Hamiltonian                  GFN2-xTB          :
 * total energy  :   -62.2488834 Eh     change       -0.1890584E-08 Eh
 * total energy  :   -62.2549118 Eh     change       -0.6028380E-02 Eh
 * total energy  :   -62.2568940 Eh     change       -0.1982176E-02 Eh
 * total energy  :   -62.2575944 Eh     change       -0.7003901E-03 Eh
 * total energy  :   -62.2583653 Eh     change       -0.7708882E-03 Eh
 * total energy  :   -62.2589470 Eh     change       -0.5817664E-03 Eh
 * total energy  :   -62.2597267 Eh     change       -0.7796661E-03 Eh
 * total energy  :   -62.2605113 Eh     change       -0.7845654E-03 Eh
 * total energy  :   -62.2611323 Eh     change       -0.6210444E-03 Eh
 * total energy  :   -62.2616335 Eh     change       -0.5011951E-03 Eh
 * total energy  :   -62.2637546 Eh     change       -0.2868807E-04 Eh
 * total energy  :   -62.2637802 Eh     change       -0.2558361E-04 Eh
 * total energy  :   -62.2638159 Eh     change       -0.3566312E-04 Eh
 * total energy  :   -62.2638459 Eh     change       -0.3000537E-04 Eh
 * total energy  :   -62.2638666 Eh     change       -0.2072397E-04 Eh
 * total energy  :   -62.2638958 Eh     change       -0.2920690E-04 Eh
 * total energy  :   -62.2638994 Eh     change       -0.3556183E-05 Eh
 * total energy  :   -62.2639081 Eh     change       -0.8765737E-05 Eh
 * total energy  :   -62.2639118 Eh     change       -0.3716587E-05 Eh
   *** GEOMETRY OPTIMIZATION CONVERGED AFTER 35 ITERATIONS ***

 final structure:
================
39
 xtb: 6.5.1 (fef0646)
N            3.20340020329134       -1.46321776508334        1.69099353536334
C            2.63864611015353       -0.92276451746237        0.43540459086978
C            3.59063192768084        0.09940349517046       -0.19095901001646
C            4.81707996884125       -0.53021658472637       -0.76097272598814
C            5.17841265902372       -0.64892170624602       -2.06877554903296
C            6.40577372620143       -1.31205558578896       -2.25710565935810
C            7.00041113331065       -1.71121492156153       -1.08806527190980
C            8.22703454842974       -2.40607535014776       -0.89334020164525
C            8.82673359275503       -2.76390780099856        0.29173498948675
C           10.03892557361558       -3.43697864203074        0.11613399738071
C           10.38405363930502       -3.60762408713377       -1.20575033842143
C           11.53485307663485       -4.24702977857146       -1.74584233078796
C           12.58266677356015       -4.83493679845529       -1.07386202869834
C           13.55041337110409       -5.37802513132773       -1.92408482917875
C           13.26356635609415       -5.21823447321390       -3.25889705219110
C           14.01949228976210       -5.64644321873621       -4.38742218892448
C           13.72668793008050       -5.49497087317522       -5.71931951561901
C           14.70660102181926       -6.04682420224362       -6.56512027053953
C           15.73470185593844       -6.61372332970638       -5.88085564087191
S           15.53340264727770       -6.48640124193448       -4.17823482806668
S           11.75903614881694       -4.37272073587409       -3.47151531841338
S            9.18479861464385       -2.91763116003975       -2.26036482210810
S            6.03277208075212       -1.24567346693983        0.26854735224118
H            2.58412578356957       -2.17224873442243        2.09748347945549
H            3.34365894015521       -0.70915699294091        2.37268552337325
H            4.12415225980174       -1.88660219933606        1.50284183445156
H            1.68720601551941       -0.43763458307365        0.64870678681191
H            2.46933504825399       -1.73981744428136       -0.26502374956385
H            3.87513192572798        0.84278386788928        0.55461766783512
H            3.07168808857403        0.61515887812406       -0.99783255360550
H            4.58977367616789       -0.27142794634379       -2.88509703387262
H            6.85601975071112       -1.49771787766600       -3.21655235541637
H            8.40536827914091       -2.54362892892416        1.25658163232947
H           10.64853949320851       -3.79028664054269        0.92678620998950
H           12.64872318212178       -4.87108734543010       -0.00243319052738
H           14.44022229648110       -5.87798403141004       -1.58435041039408
H           12.83580389324112       -5.00308119625136       -6.06776920246616
H           14.64907006401713       -6.02336386364929       -7.63792765708212
H           16.60719605421412       -7.10208708551508       -6.26529386488845

          :  Hamiltonian                  GFN2-xTB          :
         :: total energy             -62.263911846831 Eh    ::
         :: gradient norm              0.000512327146 Eh/a0 ::
         :: HOMO-LUMO gap              1.770371950706 eV    ::
         :: SCC energy               -63.200767137864 Eh    ::
         :: -> dispersion             -0.048233698805 Eh    ::
         :: -> Gsolv                  -0.122185248732 Eh    ::
         :: repulsion energy           0.937558130146 Eh    ::

    * Orbital Energies and Occupations

         #    Occupation            Energy/Eh            Energy/eV
      -------------------------------------------------------------
         1        2.0000           -0.7414567             -20.1761
       ...           ...                  ...                  ...
        46        2.0000           -0.4548078             -12.3759
        47        2.0000           -0.4531056             -12.3296
        48        2.0000           -0.4503509             -12.2547
        49        2.0000           -0.4494453             -12.2300
        50        2.0000           -0.4490025             -12.2180
        51        2.0000           -0.4417396             -12.0203
        52        2.0000           -0.4165957             -11.3361
        53        2.0000           -0.4090017             -11.1295
        54        2.0000           -0.4048257             -11.0159
        55        2.0000           -0.4039605             -10.9923
        56        2.0000           -0.4025348             -10.9535
        57        2.0000           -0.3856907             -10.4952
        58        2.0000           -0.3601625              -9.8005 (HOMO)
        59                         -0.2951025              -8.0301 (LUMO)
        60                         -0.2663820              -7.2486
        61                         -0.2375270              -6.4634
        62                         -0.2320456              -6.3143
        63                         -0.2183254              -5.9409
        64                         -0.2103601              -5.7242
        65                         -0.2092570              -5.6942
        66                         -0.1947294              -5.2989
        67                         -0.1877003              -5.1076
        68                         -0.1674824              -4.5574
        69                         -0.1565450              -4.2598
       ...                                ...                  ...
       128                          0.6993255              19.0296
      -------------------------------------------------------------
                  HL-Gap            0.0650600 Eh            1.7704 eV

     #   Z          covCN         q      C6AA      α(0)
     1   7 N        3.485    -0.164    24.526     7.355
     2   6 C        3.732    -0.041    21.409     6.604
     3   6 C        3.822    -0.096    22.309     6.722
     4   6 C        2.983     0.026    27.405     8.587
     5   6 C        3.110    -0.059    29.305     8.869
     6   6 C        3.121    -0.052    29.111     8.836
     7   6 C        3.018     0.009    27.793     8.648
     8   6 C        3.030     0.023    27.471     8.597
     9   6 C        3.090    -0.057    29.306     8.873
    10   6 C        3.095    -0.054    29.218     8.859
    11   6 C        3.022     0.018    27.580     8.614
    12   6 C        3.025     0.019    27.554     8.610
    13   6 C        3.094    -0.055    29.245     8.863
    14   6 C        3.101    -0.053    29.181     8.852
    15   6 C        3.021     0.018    27.573     8.613
    16   6 C        3.026     0.017    27.612     8.619
    17   6 C        3.107    -0.055    29.211     8.855
    18   6 C        3.107    -0.048    29.033     8.828
    19   6 C        2.940    -0.024    28.596     8.770
    20  16 S        2.325    -0.045   142.903    20.120
    21  16 S        2.380    -0.060   143.556    20.166
    22  16 S        2.370    -0.070   143.966    20.194
    23  16 S        2.377    -0.028   142.194    20.070
    24   1 H        0.859     0.321     0.654     1.267
    25   1 H        0.859     0.315     0.670     1.283
    26   1 H        0.859     0.304     0.703     1.313
    27   1 H        0.925     0.126     1.566     1.957
    28   1 H        0.925     0.116     1.642     2.004
    29   1 H        0.924     0.106     1.731     2.057
    30   1 H        0.925     0.095     1.831     2.116
    31   1 H        0.926     0.050     2.317     2.380
    32   1 H        0.926     0.025     2.654     2.548
    33   1 H        0.926     0.069     2.093     2.262
    34   1 H        0.926     0.045     2.379     2.412
    35   1 H        0.926     0.051     2.309     2.376
    36   1 H        0.926     0.048     2.343     2.394
    37   1 H        0.926     0.047     2.351     2.398
    38   1 H        0.926     0.051     2.313     2.378
    39   1 H        0.926     0.059     2.214     2.327

Wiberg/Mayer (AO) data.
largest (>0.10) Wiberg bond orders for each atom

     #   Z sym  total        # sym  WBO       # sym  WBO       # sym  WBO
 ---------------------------------------------------------------------------
     1   7 N    3.649 --     2 C    0.973    25 H    0.885    24 H    0.883
                            26 H    0.874
     2   6 C    3.926 --     3 C    0.994     1 N    0.973    28 H    0.965
                            27 H    0.961
     3   6 C    3.983 --     4 C    1.026     2 C    0.994    30 H    0.958
                            29 H    0.951
     4   6 C    3.921 --     5 C    1.579    23 S    1.143     3 C    1.026
     5   6 C    3.985 --     4 C    1.579     6 C    1.298    31 H    0.962
     6   6 C    3.970 --     7 C    1.510     5 C    1.298    32 H    0.961
     7   6 C    3.955 --     6 C    1.510     8 C    1.166    23 S    1.108
     8   6 C    3.920 --     9 C    1.473     7 C    1.166    22 S    1.116
     9   6 C    3.980 --     8 C    1.473    10 C    1.343    33 H    0.959
    10   6 C    3.970 --    11 C    1.466     9 C    1.343    34 H    0.963
    11   6 C    3.937 --    10 C    1.466    12 C    1.172    22 S    1.125
    12   6 C    3.935 --    13 C    1.466    11 C    1.172    21 S    1.123
    13   6 C    3.971 --    12 C    1.466    14 C    1.343    35 H    0.962
    14   6 C    3.985 --    15 C    1.478    13 C    1.343    36 H    0.960
    15   6 C    3.930 --    14 C    1.478    16 C    1.164    21 S    1.120
    16   6 C    3.950 --    17 C    1.505    15 C    1.164    20 S    1.121
    17   6 C    3.969 --    16 C    1.505    18 C    1.299    37 H    0.961
    18   6 C    3.986 --    19 C    1.605    17 C    1.299    38 H    0.963
    19   6 C    3.922 --    18 C    1.605    20 S    1.191    39 H    0.969
    20  16 S    2.594 --    19 C    1.191    16 C    1.121
    21  16 S    2.562 --    12 C    1.123    15 C    1.120
    22  16 S    2.561 --    11 C    1.125     8 C    1.116
    23  16 S    2.572 --     4 C    1.143     7 C    1.108
    24   1 H    0.897 --     1 N    0.883
    25   1 H    0.901 --     1 N    0.885
    26   1 H    0.908 --     1 N    0.874
    27   1 H    0.983 --     2 C    0.961
    28   1 H    0.986 --     2 C    0.965
    29   1 H    0.987 --     3 C    0.951
    30   1 H    0.991 --     3 C    0.958
    31   1 H    0.997 --     5 C    0.962
    32   1 H    0.999 --     6 C    0.961
    33   1 H    0.995 --     9 C    0.959
    34   1 H    0.998 --    10 C    0.963
    35   1 H    0.997 --    13 C    0.962
    36   1 H    0.997 --    14 C    0.960
    37   1 H    0.998 --    17 C    0.961
    38   1 H    0.997 --    18 C    0.963
    39   1 H    0.996 --    19 C    0.969
 ---------------------------------------------------------------------------

molecular dipole:
                 x           y           z       tot (Debye)
 q only:        4.965      -2.094       3.497
   full:        6.136      -2.451       2.808      18.249

           -------------------------------------------------
          | TOTAL ENERGY              -62.263911846831 Eh   |
          | GRADIENT NORM               0.000512327146 Eh/α |
          | HOMO-LUMO GAP               1.770371950706 eV   |
           -------------------------------------------------

 * finished run on 2023/01/24 at 14:57:35.930
