   * xtb version 6.5.1 (fef0646) compiled by 'conda@b96dff2e9fd6' on 2023-01-04
          program call               : xtb init.xyz --opt -c 1 -u 0 -P 16

   ID    Z sym.   atoms
    1    7 N      1
    2    6 C      2-13
    3    1 H      14-41

          :  Hamiltonian                  GFN2-xTB          :
 * total energy  :   -42.4812469 Eh     change       -0.1098144E-09 Eh
 * total energy  :   -42.4836389 Eh     change       -0.2392052E-02 Eh
 * total energy  :   -42.4842189 Eh     change       -0.5800100E-03 Eh
 * total energy  :   -42.4844115 Eh     change       -0.1926007E-03 Eh
 * total energy  :   -42.4844500 Eh     change       -0.3842540E-04 Eh
 * total energy  :   -42.4844586 Eh     change       -0.8613435E-05 Eh
 * total energy  :   -42.4844600 Eh     change       -0.1456913E-05 Eh
   *** GEOMETRY OPTIMIZATION CONVERGED AFTER 7 ITERATIONS ***

 final structure:
================
41
 xtb: 6.5.1 (fef0646)
N            0.82766791278621        0.00166744836159       -0.01363408111786
C            2.32719925151531        0.00394409070543       -0.02800700357507
C            2.84664125429567       -0.11367893002858       -1.45243607750086
C            4.37797021030163       -0.11372022275401       -1.47722670083622
C            4.91530776149391       -0.22981688350497       -2.90267912310698
C            6.44207987669926       -0.23177762500882       -2.93230411689100
C            6.98254951884525       -0.34617375659331       -4.35574763597197
C            8.50896322630538       -0.34866701269696       -4.38762973789122
C            9.05035682831441       -0.46259733836069       -5.81046433539077
C           10.57671383105896       -0.46534863003082       -5.84522713366466
C           11.11523108803203       -0.57929661838383       -7.26911942876210
C           12.64136698739171       -0.58259559715621       -7.31048716875358
C           13.16759361684071       -0.69664893368566       -8.73574842822831
H            0.45829315960441        0.08071809632320        0.94207296380201
H            0.47916256104345       -0.87003791844480       -0.43441496985457
H            0.47529464190394        0.78976893690214       -0.57319915237680
H            2.67853102560738       -0.83391209555719        0.57562852476507
H            2.67444154141635        0.93183832654594        0.42833546230999
H            2.48591052282537        0.72400326492235       -2.05276194882825
H            2.48828368636531       -1.03990085201789       -1.90622993647080
H            4.75170200566578       -0.94918061570867       -0.88336159719855
H            4.74944512241693        0.80822911553257       -1.02738284571822
H            4.54600004473759        0.60610152539557       -3.50023084762902
H            4.54653052493886       -1.15170973718326       -3.35692157026827
H            6.81495019429807       -1.06805151921156       -2.33731359281806
H            6.81447292204987        0.68909618952194       -2.47874044973134
H            6.61126078389702        0.49014535941414       -4.95227755355160
H            6.61132339534206       -1.26704152073303       -4.81107740589966
H            8.88156340594010       -1.18510880368706       -3.79199311369760
H            8.88148783364868        0.57195340041905       -3.93272943005696
H            8.67804456591263        0.37382984094139       -6.40660076530606
H            8.67807481634658       -1.38323896239660       -6.26590861164227
H           10.95026560044492       -1.30181570050421       -5.24980344569417
H           10.95022878970549        0.45518991985828       -5.39042661294884
H           10.74140927295942        0.25734758999932       -7.86423057250953
H           10.74142186306271       -1.49994221389851       -7.72359895816231
H           13.01653148355445       -1.41940868900962       -6.71688877765512
H           13.01651898485677        0.33797464909893       -6.85752415816367
H           12.82061942889031       -1.61820716239951       -9.19813226998263
H           14.25477638784288       -0.69728698988442       -8.74376450040270
H           12.82061407084222        0.13964657489830       -9.33880289261949

          :  Hamiltonian                  GFN2-xTB          :
         :: total energy             -42.484460039318 Eh    ::
         :: gradient norm              0.000194926976 Eh/a0 ::
         :: HOMO-LUMO gap              5.288506133142 eV    ::
         :: SCC energy               -43.108404913317 Eh    ::
         :: -> dispersion             -0.024724586153 Eh    ::
         :: repulsion energy           0.624262983180 Eh    ::

    * Orbital Energies and Occupations

         #    Occupation            Energy/Eh            Energy/eV
      -------------------------------------------------------------
         1        2.0000           -0.8974934             -24.4220
       ...           ...                  ...                  ...
        28        2.0000           -0.5370199             -14.6131
        29        2.0000           -0.5369760             -14.6119
        30        2.0000           -0.5240843             -14.2611
        31        2.0000           -0.5196827             -14.1413
        32        2.0000           -0.5093842             -13.8610
        33        2.0000           -0.5046420             -13.7320
        34        2.0000           -0.5026924             -13.6790
        35        2.0000           -0.4895931             -13.3225
        36        2.0000           -0.4869644             -13.2510
        37        2.0000           -0.4747914             -12.9197
        38        2.0000           -0.4731742             -12.8757
        39        2.0000           -0.4663513             -12.6901
        40        2.0000           -0.4619571             -12.5705 (HOMO)
        41                         -0.2676081              -7.2820 (LUMO)
        42                         -0.1642920              -4.4706
        43                         -0.1054777              -2.8702
        44                         -0.1036746              -2.8211
        45                         -0.0613834              -1.6703
        46                         -0.0453321              -1.2335
        47                         -0.0181176              -0.4930
        48                         -0.0095791              -0.2607
        49                          0.0004563               0.0124
        50                          0.0171185               0.4658
        51                          0.0286705               0.7802
       ...                                ...                  ...
        80                          0.2736849               7.4473
      -------------------------------------------------------------
                  HL-Gap            0.1943490 Eh            5.2885 eV

     #   Z          covCN         q      C6AA      α(0)
     1   7 N        3.482    -0.128    23.768     7.241
     2   6 C        3.731    -0.034    21.272     6.583
     3   6 C        3.803    -0.081    22.042     6.684
     4   6 C        3.804    -0.067    21.775     6.643
     5   6 C        3.803    -0.064    21.720     6.635
     6   6 C        3.803    -0.063    21.699     6.632
     7   6 C        3.803    -0.061    21.666     6.627
     8   6 C        3.803    -0.060    21.655     6.625
     9   6 C        3.803    -0.059    21.641     6.623
    10   6 C        3.803    -0.059    21.640     6.623
    11   6 C        3.803    -0.060    21.646     6.624
    12   6 C        3.801    -0.053    21.532     6.607
    13   6 C        3.752    -0.104    22.538     6.770
    14   1 H        0.859     0.270     0.811     1.411
    15   1 H        0.859     0.272     0.802     1.403
    16   1 H        0.859     0.272     0.802     1.403
    17   1 H        0.924     0.107     1.724     2.053
    18   1 H        0.924     0.107     1.724     2.053
    19   1 H        0.924     0.062     2.178     2.308
    20   1 H        0.924     0.062     2.178     2.308
    21   1 H        0.924     0.050     2.319     2.381
    22   1 H        0.924     0.050     2.319     2.382
    23   1 H        0.924     0.041     2.437     2.441
    24   1 H        0.924     0.041     2.438     2.442
    25   1 H        0.924     0.037     2.487     2.466
    26   1 H        0.924     0.037     2.487     2.466
    27   1 H        0.924     0.034     2.532     2.488
    28   1 H        0.924     0.034     2.532     2.488
    29   1 H        0.924     0.033     2.550     2.497
    30   1 H        0.924     0.033     2.550     2.497
    31   1 H        0.924     0.031     2.568     2.506
    32   1 H        0.924     0.031     2.568     2.506
    33   1 H        0.924     0.030     2.581     2.512
    34   1 H        0.924     0.030     2.581     2.512
    35   1 H        0.924     0.031     2.572     2.508
    36   1 H        0.924     0.031     2.572     2.508
    37   1 H        0.924     0.030     2.590     2.517
    38   1 H        0.924     0.030     2.590     2.517
    39   1 H        0.925     0.035     2.521     2.483
    40   1 H        0.925     0.037     2.496     2.470
    41   1 H        0.925     0.035     2.521     2.483

Wiberg/Mayer (AO) data.
largest (>0.10) Wiberg bond orders for each atom

     #   Z sym  total        # sym  WBO       # sym  WBO       # sym  WBO
 ---------------------------------------------------------------------------
     1   7 N    3.675 --     2 C    0.918    14 H    0.913    16 H    0.910
                            15 H    0.910
     2   6 C    3.883 --     3 C    1.008    18 H    0.967    17 H    0.967
                             1 N    0.918
     3   6 C    3.979 --     2 C    1.008     4 C    0.993    19 H    0.972
                            20 H    0.972
     4   6 C    3.987 --     5 C    1.004     3 C    0.993    22 H    0.976
                            21 H    0.976
     5   6 C    3.992 --     6 C    1.005     4 C    1.004    24 H    0.977
                            23 H    0.977
     6   6 C    3.994 --     7 C    1.006     5 C    1.005    25 H    0.977
                            26 H    0.977
     7   6 C    3.995 --     8 C    1.006     6 C    1.006    28 H    0.977
                            27 H    0.977
     8   6 C    3.996 --     9 C    1.007     7 C    1.006    29 H    0.977
                            30 H    0.977
     9   6 C    3.996 --    10 C    1.007     8 C    1.007    32 H    0.977
                            31 H    0.977
    10   6 C    3.997 --    11 C    1.007     9 C    1.007    33 H    0.977
                            34 H    0.977
    11   6 C    3.997 --    12 C    1.008    10 C    1.007    36 H    0.977
                            35 H    0.977
    12   6 C    3.997 --    13 C    1.019    11 C    1.008    38 H    0.979
                            37 H    0.979
    13   6 C    3.996 --    12 C    1.019    41 H    0.988    39 H    0.988
                            40 H    0.987
    14   1 H    0.927 --     1 N    0.913
    15   1 H    0.926 --     1 N    0.910
    16   1 H    0.926 --     1 N    0.910
    17   1 H    0.989 --     2 C    0.967
    18   1 H    0.989 --     2 C    0.967
    19   1 H    0.996 --     3 C    0.972
    20   1 H    0.996 --     3 C    0.972
    21   1 H    0.997 --     4 C    0.976
    22   1 H    0.997 --     4 C    0.976
    23   1 H    0.998 --     5 C    0.977
    24   1 H    0.998 --     5 C    0.977
    25   1 H    0.999 --     6 C    0.977
    26   1 H    0.999 --     6 C    0.977
    27   1 H    0.999 --     7 C    0.977
    28   1 H    0.999 --     7 C    0.977
    29   1 H    0.999 --     8 C    0.977
    30   1 H    0.999 --     8 C    0.977
    31   1 H    0.999 --     9 C    0.977
    32   1 H    0.999 --     9 C    0.977
    33   1 H    0.999 --    10 C    0.977
    34   1 H    0.999 --    10 C    0.977
    35   1 H    0.999 --    11 C    0.977
    36   1 H    0.999 --    11 C    0.977
    37   1 H    0.999 --    12 C    0.979
    38   1 H    0.999 --    12 C    0.979
    39   1 H    0.999 --    13 C    0.988
    40   1 H    0.998 --    13 C    0.987
    41   1 H    0.999 --    13 C    0.988
 ---------------------------------------------------------------------------

molecular dipole:
                 x           y           z       tot (Debye)
 q only:        2.793      -0.044      -0.622
   full:        2.420      -0.033      -0.480       6.272

           -------------------------------------------------
          | TOTAL ENERGY              -42.484460039318 Eh   |
          | GRADIENT NORM               0.000194926976 Eh/α |
          | HOMO-LUMO GAP               5.288506133142 eV   |
           -------------------------------------------------

 * finished run on 2023/01/23 at 14:18:41.245
