   * xtb version 6.5.1 (fef0646) compiled by 'conda@b96dff2e9fd6' on 2023-01-04
          program call               : xtb init.xyz --opt -c 1 -u 0 -P 16 --alpb water

   ID    Z sym.   atoms
    1    7 N      1
    2    6 C      2-9
    3    1 H      10-25

      * Solvation model:               ALPB
        Solvent                        water
        Solvent mass                       1.8000E+01 g/mol
          :  Hamiltonian                  GFN2-xTB          :
 * total energy  :   -27.8807180 Eh     change       -0.6500045E-10 Eh
 * total energy  :   -27.8824975 Eh     change       -0.1779564E-02 Eh
 * total energy  :   -27.8828790 Eh     change       -0.3815039E-03 Eh
 * total energy  :   -27.8830666 Eh     change       -0.1875502E-03 Eh
 * total energy  :   -27.8831934 Eh     change       -0.1268327E-03 Eh
 * total energy  :   -27.8832539 Eh     change       -0.6049327E-04 Eh
 * total energy  :   -27.8833008 Eh     change       -0.4687511E-04 Eh
 * total energy  :   -27.8833374 Eh     change       -0.3660063E-04 Eh
 * total energy  :   -27.8833737 Eh     change       -0.3630776E-04 Eh
 * total energy  :   -27.8833949 Eh     change       -0.2123963E-04 Eh
 * total energy  :   -27.8834038 Eh     change       -0.8827437E-05 Eh
 * total energy  :   -27.8834046 Eh     change       -0.8341725E-06 Eh
   *** GEOMETRY OPTIMIZATION CONVERGED AFTER 12 ITERATIONS ***

 final structure:
================
25
 xtb: 6.5.1 (fef0646)
N            2.91491100506961        0.42056870740868        1.01202681444618
C            2.53601873085723       -0.76084861334451        0.20142226296862
C            3.06620677120082       -0.59331053427660       -1.22347323246596
C            4.57461503597825       -0.59052585594271       -1.24904522987876
C            5.27628280505557        0.53762843229006       -1.25622455769421
C            6.77206361288276        0.60015713079804       -1.28493632627124
C            7.38329112007616       -0.74619870860949       -1.66500859669010
C            6.70722820861453       -1.86040516193194       -0.87253264306712
C            5.23214571866776       -1.94108736888640       -1.25765857347293
H            2.71204071135779        0.27333731069896        2.00693508809826
H            2.40926376873535        1.25337770146524        0.68757492564253
H            3.92379050472239        0.59007622251115        0.88685110390806
H            1.45209182308815       -0.86283198986178        0.18802740589099
H            2.96719260787021       -1.65402935896983        0.65267633706089
H            2.68408213935006        0.33252565717540       -1.65330637546729
H            2.70098680956310       -1.42000973067402       -1.83161996588170
H            4.77816856545004        1.49805901331233       -1.27517720298680
H            7.14329382935084        0.90517011884062       -0.30050101653911
H            7.09114024062626        1.36951757565508       -1.99259795086234
H            8.45832368120711       -0.73750177961928       -1.47443047151414
H            7.23795183383631       -0.92592525492008       -2.73283211215815
H            6.80672401556062       -1.65162361836215        0.19460284741184
H            7.19710223032733       -2.81566517530847       -1.07088162242324
H            4.70967342052074       -2.62516898752248       -0.58594402502610
H            5.14485081003108       -2.36064573192575       -2.26540688302822

          :  Hamiltonian                  GFN2-xTB          :
         :: total energy             -27.883404593126 Eh    ::
         :: gradient norm              0.000928714973 Eh/a0 ::
         :: HOMO-LUMO gap              5.035091403885 eV    ::
         :: SCC energy               -28.311739306568 Eh    ::
         :: -> dispersion             -0.017236828161 Eh    ::
         :: -> Gsolv                  -0.113494963419 Eh    ::
         :: repulsion energy           0.428180125514 Eh    ::

    * Orbital Energies and Occupations

         #    Occupation            Energy/Eh            Energy/eV
      -------------------------------------------------------------
         1        2.0000           -0.6918281             -18.8256
       ...           ...                  ...                  ...
        14        2.0000           -0.4998609             -13.6019
        15        2.0000           -0.4956141             -13.4863
        16        2.0000           -0.4917872             -13.3822
        17        2.0000           -0.4848116             -13.1924
        18        2.0000           -0.4768471             -12.9757
        19        2.0000           -0.4664861             -12.6937
        20        2.0000           -0.4598191             -12.5123
        21        2.0000           -0.4555059             -12.3949
        22        2.0000           -0.4494878             -12.2312
        23        2.0000           -0.4260583             -11.5936
        24        2.0000           -0.4177900             -11.3686
        25        2.0000           -0.4105609             -11.1719
        26        2.0000           -0.3838675             -10.4456 (HOMO)
        27                         -0.1988313              -5.4105 (LUMO)
        28                         -0.0444407              -1.2093
        29                          0.0550995               1.4993
        30                          0.0684328               1.8622
        31                          0.0898040               2.4437
        32                          0.0976615               2.6575
        33                          0.1065819               2.9002
        34                          0.1108104               3.0153
        35                          0.1189496               3.2368
        36                          0.1257570               3.4220
        37                          0.1403937               3.8203
       ...                                ...                  ...
        52                          0.6366290              17.3236
      -------------------------------------------------------------
                  HL-Gap            0.1850362 Eh            5.0351 eV

     #   Z          covCN         q      C6AA      α(0)
     1   7 N        3.485    -0.155    24.346     7.328
     2   6 C        3.733    -0.036    21.308     6.589
     3   6 C        3.809    -0.096    22.318     6.725
     4   6 C        2.945    -0.002    28.077     8.691
     5   6 C        2.898    -0.066    29.634     8.926
     6   6 C        3.808    -0.063    21.704     6.632
     7   6 C        3.807    -0.059    21.622     6.619
     8   6 C        3.806    -0.061    21.669     6.627
     9   6 C        3.811    -0.072    21.870     6.657
    10   1 H        0.859     0.317     0.665     1.278
    11   1 H        0.859     0.308     0.691     1.302
    12   1 H        0.859     0.292     0.738     1.346
    13   1 H        0.925     0.113     1.668     2.020
    14   1 H        0.925     0.107     1.725     2.054
    15   1 H        0.925     0.075     2.032     2.229
    16   1 H        0.925     0.076     2.023     2.224
    17   1 H        0.925     0.045     2.388     2.416
    18   1 H        0.924     0.046     2.371     2.408
    19   1 H        0.924     0.032     2.565     2.505
    20   1 H        0.924     0.017     2.784     2.609
    21   1 H        0.924     0.026     2.647     2.544
    22   1 H        0.924     0.042     2.423     2.434
    23   1 H        0.924     0.020     2.733     2.585
    24   1 H        0.924     0.054     2.269     2.356
    25   1 H        0.924     0.042     2.427     2.436

Wiberg/Mayer (AO) data.
largest (>0.10) Wiberg bond orders for each atom

     #   Z sym  total        # sym  WBO       # sym  WBO       # sym  WBO
 ---------------------------------------------------------------------------
     1   7 N    3.657 --     2 C    0.966    11 H    0.891    12 H    0.887
                            10 H    0.887
     2   6 C    3.927 --     3 C    0.997     1 N    0.966    13 H    0.965
                            14 H    0.965
     3   6 C    3.989 --     4 C    1.006     2 C    0.997    15 H    0.968
                            16 H    0.962
     4   6 C    3.987 --     5 C    1.872     9 C    1.013     3 C    1.006
     5   6 C    3.987 --     4 C    1.872     6 C    1.024    17 H    0.963
     6   6 C    3.997 --     5 C    1.024     7 C    1.006    19 H    0.967
                            18 H    0.958
     7   6 C    3.998 --     8 C    1.009     6 C    1.006    21 H    0.979
                            20 H    0.979
     8   6 C    3.997 --     7 C    1.009     9 C    1.006    23 H    0.979
                            22 H    0.977
     9   6 C    3.997 --     4 C    1.013     8 C    1.006    24 H    0.963
                            25 H    0.957
    10   1 H    0.900 --     1 N    0.887
    11   1 H    0.905 --     1 N    0.891
    12   1 H    0.915 --     1 N    0.887
    13   1 H    0.987 --     2 C    0.965
    14   1 H    0.989 --     2 C    0.965
    15   1 H    0.994 --     3 C    0.968
    16   1 H    0.994 --     3 C    0.962
    17   1 H    0.998 --     5 C    0.963
    18   1 H    0.998 --     6 C    0.958
    19   1 H    0.999 --     6 C    0.967
    20   1 H    0.999 --     7 C    0.979
    21   1 H    0.999 --     7 C    0.979
    22   1 H    0.998 --     8 C    0.977
    23   1 H    0.999 --     8 C    0.979
    24   1 H    0.997 --     9 C    0.963
    25   1 H    0.998 --     9 C    0.957
 ---------------------------------------------------------------------------

molecular dipole:
                 x           y           z       tot (Debye)
 q only:        5.264       0.531       1.751
   full:        5.498       0.572       1.703      14.701

           -------------------------------------------------
          | TOTAL ENERGY              -27.883404593126 Eh   |
          | GRADIENT NORM               0.000928714973 Eh/α |
          | HOMO-LUMO GAP               5.035091403885 eV   |
           -------------------------------------------------

 * finished run on 2023/01/24 at 15:52:37.999
