   * xtb version 6.5.1 (fef0646) compiled by 'conda@b96dff2e9fd6' on 2023-01-04
          program call               : xtb init.xyz --opt -c 1 -u 0 -P 16 --input xtb.inp

   ID    Z sym.   atoms
    1    7 N      1
    2    6 C      2-9
    3    1 H      10-25

          :  Hamiltonian                  GFN2-xTB          :
 * total energy  :   -27.7744614 Eh     change       -0.1135589E-09 Eh
 * total energy  :   -27.7764807 Eh     change       -0.2019273E-02 Eh
 * total energy  :   -27.7773415 Eh     change       -0.8608555E-03 Eh
 * total energy  :   -27.7779366 Eh     change       -0.5950828E-03 Eh
 * total energy  :   -27.7784077 Eh     change       -0.4710904E-03 Eh
 * total energy  :   -27.7788291 Eh     change       -0.4213915E-03 Eh
 * total energy  :   -27.7792226 Eh     change       -0.3935439E-03 Eh
 * total energy  :   -27.7795770 Eh     change       -0.3544094E-03 Eh
 * total energy  :   -27.7798111 Eh     change       -0.2340205E-03 Eh
 * total energy  :   -27.7796567 Eh     change        0.1543499E-03 Eh
 * total energy  :   -27.7799437 Eh     change       -0.2869680E-03 Eh
 * total energy  :   -27.7799708 Eh     change       -0.2713126E-04 Eh
 * total energy  :   -27.7800054 Eh     change       -0.3453863E-04 Eh
 * total energy  :   -27.7800294 Eh     change       -0.2399564E-04 Eh
 * total energy  :   -27.7800566 Eh     change       -0.2724351E-04 Eh
 * total energy  :   -27.7800721 Eh     change       -0.1550667E-04 Eh
 * total energy  :   -27.7800782 Eh     change       -0.6070494E-05 Eh
 * total energy  :   -27.7800779 Eh     change        0.2984974E-06 Eh
 * total energy  :   -27.7800813 Eh     change       -0.3388219E-05 Eh
   *** GEOMETRY OPTIMIZATION CONVERGED AFTER 19 ITERATIONS ***

 final structure:
================
25
 xtb: 6.5.1 (fef0646)
N            3.18065348550119        1.00431941814641        0.34810927897602
C            2.51830930385025       -0.32114254293110        0.18899255268082
C            2.98179512700558       -0.90499691007178       -1.15064775783264
C            4.49044671788137       -0.89795553086051       -1.18104705941415
C            5.16539939305715        0.15491082704095       -1.65551022114042
C            6.65922633306002        0.25380999452149       -1.67323843009093
C            7.32424746659243       -1.08192780961609       -1.35120732839150
C            6.61960010060372       -1.74964075072570       -0.17616704719924
C            5.17973968427411       -2.07707956958735       -0.56447592278176
H            3.28821618372796        1.28616833452819        1.32613962474155
H            2.66986561824627        1.73772339843089       -0.15347348010753
H            4.12990387327905        0.86392912991880       -0.12773233314146
H            1.43531364410979       -0.21349501549313        0.22734561082953
H            2.83840380052962       -0.96670116224616        1.00734886535532
H            2.57488683400868       -0.31326999076375       -1.97175054336653
H            2.60245826945470       -1.92074172863130       -1.24631178845197
H            4.64454809596771        0.96278364970534       -2.16002401520532
H            6.97431618721985        1.01378141289917       -0.94938852961182
H            6.98125011845226        0.60761930082906       -2.65401461781367
H            8.37756427012088       -0.92362606568422       -1.12361301728051
H            7.26383635782966       -1.73626783846142       -2.22143790619051
H            6.63145422342460       -1.07977168419124        0.68729166263430
H            7.14005427377411       -2.66367060555267        0.10591781034198
H            4.62050056367952       -2.43592394033013        0.30281559230772
H            5.17854007434937       -2.88982432087365       -1.29644099984720

          :  Hamiltonian                  GFN2-xTB          :
         :: total energy             -27.780081264400 Eh    ::
         :: gradient norm              0.000494602678 Eh/a0 ::
         :: HOMO-LUMO gap              4.803715808510 eV    ::
         :: SCC energy               -28.201670393738 Eh    ::
         :: -> dispersion             -0.017479868955 Eh    ::
         :: repulsion energy           0.421428147936 Eh    ::

    * Orbital Energies and Occupations

         #    Occupation            Energy/Eh            Energy/eV
      -------------------------------------------------------------
         1        2.0000           -0.8800405             -23.9471
       ...           ...                  ...                  ...
        14        2.0000           -0.6511907             -17.7198
        15        2.0000           -0.6470667             -17.6076
        16        2.0000           -0.6290790             -17.1181
        17        2.0000           -0.6211639             -16.9027
        18        2.0000           -0.6144968             -16.7213
        19        2.0000           -0.6025796             -16.3970
        20        2.0000           -0.5933559             -16.1460
        21        2.0000           -0.5920081             -16.1094
        22        2.0000           -0.5887195             -16.0199
        23        2.0000           -0.5465662             -14.8728
        24        2.0000           -0.5406166             -14.7109
        25        2.0000           -0.5378979             -14.6369
        26        2.0000           -0.5261165             -14.3164 (HOMO)
        27                         -0.3495832              -9.5126 (LUMO)
        28                         -0.2427529              -6.6056
        29                         -0.1461834              -3.9779
        30                         -0.0907113              -2.4684
        31                         -0.0870302              -2.3682
        32                         -0.0722388              -1.9657
        33                         -0.0463102              -1.2602
        34                         -0.0413155              -1.1243
        35                         -0.0155652              -0.4235
        36                         -0.0105081              -0.2859
        37                         -0.0024989              -0.0680
       ...                                ...                  ...
        52                          0.4653541              12.6629
      -------------------------------------------------------------
                  HL-Gap            0.1765333 Eh            4.8037 eV

     #   Z          covCN         q      C6AA      Î±(0)
     1   7 N        3.481    -0.150    24.236     7.312
     2   6 C        3.734    -0.029    21.174     6.567
     3   6 C        3.810    -0.095    22.297     6.721
     4   6 C        2.948    -0.005    28.143     8.701
     5   6 C        2.897    -0.063    29.578     8.917
     6   6 C        3.808    -0.062    21.679     6.628
     7   6 C        3.807    -0.065    21.735     6.637
     8   6 C        3.806    -0.062    21.678     6.628
     9   6 C        3.811    -0.072    21.868     6.656
    10   1 H        0.859     0.258     0.854     1.448
    11   1 H        0.859     0.258     0.852     1.446
    12   1 H        0.854     0.276     0.789     1.392
    13   1 H        0.925     0.101     1.772     2.082
    14   1 H        0.924     0.102     1.770     2.080
    15   1 H        0.924     0.069     2.095     2.264
    16   1 H        0.925     0.094     1.844     2.123
    17   1 H        0.925     0.031     2.569     2.506
    18   1 H        0.924     0.047     2.358     2.402
    19   1 H        0.924     0.062     2.178     2.308
    20   1 H        0.925     0.050     2.316     2.380
    21   1 H        0.924     0.051     2.313     2.378
    22   1 H        0.924     0.033     2.551     2.497
    23   1 H        0.925     0.053     2.288     2.365
    24   1 H        0.924     0.045     2.383     2.414
    25   1 H        0.924     0.072     2.062     2.245

Wiberg/Mayer (AO) data.
largest (>0.10) Wiberg bond orders for each atom

     #   Z sym  total        # sym  WBO       # sym  WBO       # sym  WBO
 ---------------------------------------------------------------------------
     1   7 N    3.658 --     2 C    0.940    10 H    0.920    11 H    0.919
                            12 H    0.808
     2   6 C    3.904 --     3 C    0.991    13 H    0.969    14 H    0.967
                             1 N    0.940
     3   6 C    3.980 --     4 C    1.004     2 C    0.991    15 H    0.969
                            16 H    0.961
     4   6 C    3.985 --     5 C    1.797     9 C    1.020     3 C    1.004
     5   6 C    3.990 --     4 C    1.797     6 C    1.030    17 H    0.957
     6   6 C    3.996 --     5 C    1.030     7 C    1.006    19 H    0.960
                            18 H    0.953
     7   6 C    3.995 --     8 C    1.009     6 C    1.006    21 H    0.977
                            20 H    0.976
     8   6 C    3.996 --     7 C    1.009     9 C    1.004    22 H    0.978
                            23 H    0.976
     9   6 C    3.995 --     4 C    1.020     8 C    1.004    24 H    0.963
                            25 H    0.947
    10   1 H    0.934 --     1 N    0.920
    11   1 H    0.933 --     1 N    0.919
    12   1 H    0.924 --     1 N    0.808
    13   1 H    0.989 --     2 C    0.969
    14   1 H    0.990 --     2 C    0.967
    15   1 H    0.995 --     3 C    0.969
    16   1 H    0.991 --     3 C    0.961
    17   1 H    0.999 --     5 C    0.957
    18   1 H    0.998 --     6 C    0.953
    19   1 H    0.996 --     6 C    0.960
    20   1 H    0.997 --     7 C    0.976
    21   1 H    0.997 --     7 C    0.977
    22   1 H    0.999 --     8 C    0.978
    23   1 H    0.997 --     8 C    0.976
    24   1 H    0.998 --     9 C    0.963
    25   1 H    0.995 --     9 C    0.947
 ---------------------------------------------------------------------------

molecular dipole:
                 x           y           z       tot (Debye)
 q only:        6.717       0.822       0.087
   full:        6.664       1.050       0.149      17.152

           -------------------------------------------------
          | TOTAL ENERGY              -27.780081264400 Eh   |
          | GRADIENT NORM               0.000494602678 Eh/Î± |
          | HOMO-LUMO GAP               4.803715808510 eV   |
           -------------------------------------------------

 * finished run on 2023/01/23 at 19:48:08.868
