   * xtb version 6.5.1 (fef0646) compiled by 'conda@b96dff2e9fd6' on 2023-01-04
          program call               : xtb init.xyz --opt -c 0 -u 0 -P 16 --alpb water

   ID    Z sym.   atoms
    1    7 N      1
    2    6 C      2-7, 10, 11
    3    8 O      8, 9
    4   17 Cl     12
    5    1 H      13-28

      * Solvation model:               ALPB
        Solvent                        water
        Solvent mass                       1.8000E+01 g/mol
          :  Hamiltonian                  GFN2-xTB          :
 * total energy  :   -40.9629790 Eh     change       -0.1567486E-08 Eh
 * total energy  :   -40.9690474 Eh     change       -0.6068400E-02 Eh
 * total energy  :   -40.9708289 Eh     change       -0.1781486E-02 Eh
 * total energy  :   -40.9715767 Eh     change       -0.7477437E-03 Eh
 * total energy  :   -40.9721433 Eh     change       -0.5666068E-03 Eh
 * total energy  :   -40.9728629 Eh     change       -0.7196257E-03 Eh
 * total energy  :   -40.9734065 Eh     change       -0.5435554E-03 Eh
 * total energy  :   -40.9736877 Eh     change       -0.2812238E-03 Eh
 * total energy  :   -40.9737940 Eh     change       -0.1063538E-03 Eh
 * total energy  :   -40.9738875 Eh     change       -0.9349224E-04 Eh
 * total energy  :   -40.9750537 Eh     change       -0.1196912E-04 Eh
 * total energy  :   -40.9750713 Eh     change       -0.1757112E-04 Eh
 * total energy  :   -40.9750881 Eh     change       -0.1684156E-04 Eh
 * total energy  :   -40.9750997 Eh     change       -0.1157544E-04 Eh
 * total energy  :   -40.9751185 Eh     change       -0.1884271E-04 Eh
 * total energy  :   -40.9751277 Eh     change       -0.9144121E-05 Eh
 * total energy  :   -40.9751349 Eh     change       -0.7272071E-05 Eh
 * total energy  :   -40.9751400 Eh     change       -0.5045311E-05 Eh
 * total energy  :   -40.9751431 Eh     change       -0.3072623E-05 Eh
   *** GEOMETRY OPTIMIZATION CONVERGED AFTER 32 ITERATIONS ***

 final structure:
================
28
 xtb: 6.5.1 (fef0646)
N            1.30089952158896        0.52611362358351       -0.55694538345676
C            2.61178470468490        0.09719285112326       -0.02899473128387
C            3.02736033408228       -1.26376626617507       -0.58790728451950
C            2.24891992789680       -2.39902806866942        0.07722994783142
C            2.66198628659691       -3.74680688721334       -0.50461908213316
C            4.17014751056253       -3.97567391090550       -0.29762831338025
C            4.51782018518907       -5.30627412945318       -0.92306218119547
O            4.44378186561481       -6.37848440065582       -0.13244076136498
O            4.81147280619578       -5.44375727104098       -2.08919378184981
C            4.95740859677546       -2.83800808773528       -0.95044286431637
C            4.52806196825707       -1.48828766689652       -0.38377145804101
Cl          -1.23364524724388       -1.13491163303983       -0.09326512246861
H            1.03493852940722        1.43942858922067       -0.18200552031429
H            0.52432101217106       -0.13500071461509       -0.31056525514898
H            1.32211541973417        0.57442157276754       -1.57851985880060
H            2.55080688221999        0.04099643086321        1.05728636131694
H            3.35796756795000        0.84397413727330       -0.30440177004005
H            2.82252030979600       -1.28860925166012       -1.66215518445673
H            1.17563768188682       -2.26588788126348       -0.06355205956125
H            2.44583034121608       -2.39667423455532        1.15089012028724
H            2.44635361330961       -3.77266894660102       -1.57508706951765
H            2.08679070917613       -4.54753042832864       -0.03558851107880
H            4.38261735493473       -3.99866427584893        0.77526901391444
H            4.23198122428707       -6.17177677732715        0.79581977677308
H            4.78516637786991       -2.87243794227565       -2.02767052222500
H            6.02512163921489       -2.99336422847471       -0.78491659063028
H            5.09601488556990       -0.70155400888373       -0.88040769620941
H            4.75945799112002       -1.45324019320092        0.68189578186057

          :  Hamiltonian                  GFN2-xTB          :
         :: total energy             -40.975143066697 Eh    ::
         :: gradient norm              0.000321428421 Eh/a0 ::
         :: HOMO-LUMO gap              4.329924560221 eV    ::
         :: SCC energy               -41.405838414028 Eh    ::
         :: -> dispersion             -0.022123294801 Eh    ::
         :: -> Gsolv                  -0.091711276816 Eh    ::
         :: repulsion energy           0.430565784678 Eh    ::

    * Orbital Energies and Occupations

         #    Occupation            Energy/Eh            Energy/eV
      -------------------------------------------------------------
         1        2.0000           -1.0067940             -27.3963
       ...           ...                  ...                  ...
        24        2.0000           -0.4758078             -12.9474
        25        2.0000           -0.4724834             -12.8569
        26        2.0000           -0.4667709             -12.7015
        27        2.0000           -0.4584172             -12.4742
        28        2.0000           -0.4469978             -12.1634
        29        2.0000           -0.4380767             -11.9207
        30        2.0000           -0.4372403             -11.8979
        31        2.0000           -0.4231007             -11.5132
        32        2.0000           -0.4149142             -11.2904
        33        2.0000           -0.4103162             -11.1653
        34        2.0000           -0.4033036             -10.9744
        35        2.0000           -0.4008451             -10.9076
        36        2.0000           -0.3983416             -10.8394 (HOMO)
        37                         -0.2392198              -6.5095 (LUMO)
        38                         -0.0290389              -0.7902
        39                          0.0470038               1.2790
        40                          0.0616892               1.6786
        41                          0.0726790               1.9777
        42                          0.0789155               2.1474
        43                          0.0891336               2.4254
        44                          0.0942401               2.5644
        45                          0.1026913               2.7944
        46                          0.1099330               2.9914
        47                          0.1151558               3.1335
       ...                                ...                  ...
        69                          0.6013819              16.3644
      -------------------------------------------------------------
                  HL-Gap            0.1591218 Eh            4.3299 eV

     #   Z          covCN         q      C6AA      α(0)
     1   7 N        3.483    -0.166    24.574     7.363
     2   6 C        3.735    -0.036    21.306     6.587
     3   6 C        3.856    -0.029    21.054     6.526
     4   6 C        3.809    -0.074    21.908     6.663
     5   6 C        3.811    -0.051    21.485     6.598
     6   6 C        3.856    -0.055    21.521     6.598
     7   6 C        2.697     0.366    20.794     7.463
     8   8 O        1.659    -0.427    21.374     6.241
     9   8 O        0.857    -0.468    23.098     6.444
    10   6 C        3.808    -0.061    21.659     6.625
    11   6 C        3.809    -0.075    21.922     6.665
    12  17 Cl       0.034    -0.949   124.944    17.012
    13   1 H        0.859     0.305     0.698     1.309
    14   1 H        0.891     0.292     0.736     1.343
    15   1 H        0.859     0.295     0.727     1.336
    16   1 H        0.925     0.104     1.748     2.068
    17   1 H        0.924     0.110     1.699     2.038
    18   1 H        0.924     0.062     2.181     2.310
    19   1 H        0.924     0.060     2.196     2.317
    20   1 H        0.924     0.051     2.313     2.378
    21   1 H        0.924     0.040     2.455     2.450
    22   1 H        0.924     0.031     2.576     2.510
    23   1 H        0.924     0.063     2.167     2.302
    24   1 H        0.804     0.408     0.470     1.077
    25   1 H        0.924     0.051     2.312     2.378
    26   1 H        0.924     0.041     2.439     2.442
    27   1 H        0.925     0.059     2.216     2.328
    28   1 H        0.924     0.056     2.246     2.344

Wiberg/Mayer (AO) data.
largest (>0.10) Wiberg bond orders for each atom

     #   Z sym  total        # sym  WBO       # sym  WBO       # sym  WBO
 ---------------------------------------------------------------------------
     1   7 N    3.646 --     2 C    0.968    15 H    0.896    13 H    0.892
                            14 H    0.838
     2   6 C    3.927 --     3 C    0.998     1 N    0.968    16 H    0.966
                            17 H    0.965
     3   6 C    3.993 --     4 C    0.998     2 C    0.998    11 C    0.995
                            18 H    0.961
     4   6 C    3.993 --     5 C    1.004     3 C    0.998    20 H    0.974
                            19 H    0.966
     5   6 C    3.992 --     4 C    1.004    22 H    0.977    21 H    0.976
                             6 C    0.962
     6   6 C    3.991 --    10 C    0.990     7 C    0.970     5 C    0.962
                            23 H    0.958
     7   6 C    3.895 --     9 O    1.721     8 O    1.153     6 C    0.970
     8   8 O    2.172 --     7 C    1.153    24 H    0.810     9 O    0.157
     9   8 O    1.992 --     7 C    1.721     8 O    0.157
    10   6 C    3.993 --    11 C    1.008     6 C    0.990    26 H    0.976
                            25 H    0.974
    11   6 C    3.994 --    10 C    1.008     3 C    0.995    28 H    0.974
                            27 H    0.973
    12  17 Cl   0.099
    13   1 H    0.907 --     1 N    0.892
    14   1 H    0.915 --     1 N    0.838
    15   1 H    0.913 --     1 N    0.896
    16   1 H    0.989 --     2 C    0.966
    17   1 H    0.988 --     2 C    0.965
    18   1 H    0.996 --     3 C    0.961
    19   1 H    0.996 --     4 C    0.966
    20   1 H    0.997 --     4 C    0.974
    21   1 H    0.998 --     5 C    0.976
    22   1 H    0.999 --     5 C    0.977
    23   1 H    0.996 --     6 C    0.958
    24   1 H    0.834 --     8 O    0.810
    25   1 H    0.997 --    10 C    0.974
    26   1 H    0.998 --    10 C    0.976
    27   1 H    0.996 --    11 C    0.973
    28   1 H    0.997 --    11 C    0.974
 ---------------------------------------------------------------------------

molecular dipole:
                 x           y           z       tot (Debye)
 q only:        4.120       3.984       1.129
   full:        3.270       3.646       1.328      12.898

           -------------------------------------------------
          | TOTAL ENERGY              -40.975143066697 Eh   |
          | GRADIENT NORM               0.000321428421 Eh/α |
          | HOMO-LUMO GAP               4.329924560221 eV   |
           -------------------------------------------------

 * finished run on 2023/01/24 at 15:19:02.875
