   * xtb version 6.5.1 (fef0646) compiled by 'conda@b96dff2e9fd6' on 2023-01-04
          program call               : xtb init.xyz --opt -c 0 -u 0 -P 16 --input xtb.inp

   ID    Z sym.   atoms
    1    7 N      1
    2    6 C      2-7, 10, 11
    3    8 O      8, 9
    4   17 Cl     12
    5    1 H      13-28

          :  Hamiltonian                  GFN2-xTB          :
 * total energy  :   -40.8951454 Eh     change       -0.1136485E-08 Eh
 * total energy  :   -40.9039420 Eh     change       -0.8796671E-02 Eh
 * total energy  :   -40.9089645 Eh     change       -0.5022449E-02 Eh
 * total energy  :   -40.9123200 Eh     change       -0.3355507E-02 Eh
 * total energy  :   -40.9149040 Eh     change       -0.2583967E-02 Eh
 * total energy  :   -40.9166164 Eh     change       -0.1712459E-02 Eh
 * total energy  :   -40.9175069 Eh     change       -0.8904545E-03 Eh
 * total energy  :   -40.9180057 Eh     change       -0.4987802E-03 Eh
 * total energy  :   -40.9182548 Eh     change       -0.2491512E-03 Eh
 * total energy  :   -40.9183931 Eh     change       -0.1383064E-03 Eh
 * total energy  :   -40.9199056 Eh     change       -0.3880459E-04 Eh
 * total energy  :   -40.9199287 Eh     change       -0.2316707E-04 Eh
 * total energy  :   -40.9199617 Eh     change       -0.3295498E-04 Eh
 * total energy  :   -40.9199784 Eh     change       -0.1676123E-04 Eh
 * total energy  :   -40.9200018 Eh     change       -0.2337750E-04 Eh
 * total energy  :   -40.9200199 Eh     change       -0.1803216E-04 Eh
 * total energy  :   -40.9200288 Eh     change       -0.8920323E-05 Eh
 * total energy  :   -40.9200380 Eh     change       -0.9253613E-05 Eh
 * total energy  :   -40.9200414 Eh     change       -0.3329767E-05 Eh
   *** GEOMETRY OPTIMIZATION CONVERGED AFTER 32 ITERATIONS ***

 final structure:
================
28
 xtb: 6.5.1 (fef0646)
N            1.11131894484928        0.14455852838219        0.11401445849306
C            2.46790845561671       -0.25630572259310        0.48578754981843
C            2.94740496740821       -1.43453723818052       -0.36783233424165
C            2.18614447232857       -2.72152967693890       -0.04363707713342
C            2.67903397683628       -3.87393870638992       -0.91507991820839
C            4.18164418786990       -4.09136347721439       -0.70911828109803
C            4.69195335896881       -5.25890372287947       -1.54177270222739
O            4.54823619766358       -5.13434165126118       -2.87089819119837
O            5.19642434204849       -6.23595565933322       -1.06822896634478
C            4.95061611912617       -2.80509871419525       -1.03223772097637
C            4.44649658694351       -1.65927127947476       -0.15976504703063
Cl           0.92495856189409        0.49563260575279       -2.78964322925480
H            0.84572691248332        1.00576628874515        0.57796564676689
H            0.43984110860323       -0.57475960985752        0.36122258198573
H            1.02055366084451        0.34637027997742       -1.42398270930476
H            2.54290974912048       -0.51865493164824        1.55068293193662
H            3.11964011359744        0.60104309552557        0.30187950470151
H            2.76902121403388       -1.17527928964470       -1.41508518494606
H            1.11871269576693       -2.58275180285616       -0.22223719612113
H            2.32821990254765       -2.97532827191318        1.00961308887387
H            2.46312065704869       -3.63525937800854       -1.96027339027483
H            2.13849233737469       -4.78833992380438       -0.66238029023810
H            4.36149699051132       -4.35671258963700        0.33714846897289
H            4.12556411250016       -4.30077358696706       -3.11926782685236
H            4.81750409528710       -2.53193564085954       -2.08280255726097
H            6.01706630984194       -2.96258586634567       -0.85993025145561
H            4.99309727795726       -0.74779674471254       -0.40755139441725
H            4.63809269092320       -1.89039731365875        0.89044003704203

          :  Hamiltonian                  GFN2-xTB          :
         :: total energy             -40.920041366192 Eh    ::
         :: gradient norm              0.000895411501 Eh/a0 ::
         :: HOMO-LUMO gap              4.544280631978 eV    ::
         :: SCC energy               -41.343934577055 Eh    ::
         :: -> dispersion             -0.022996818484 Eh    ::
         :: repulsion energy           0.423682931014 Eh    ::

    * Orbital Energies and Occupations

         #    Occupation            Energy/Eh            Energy/eV
      -------------------------------------------------------------
         1        2.0000           -1.0263513             -27.9284
       ...           ...                  ...                  ...
        24        2.0000           -0.4944612             -13.4550
        25        2.0000           -0.4912081             -13.3665
        26        2.0000           -0.4800302             -13.0623
        27        2.0000           -0.4754790             -12.9384
        28        2.0000           -0.4641105             -12.6291
        29        2.0000           -0.4614466             -12.5566
        30        2.0000           -0.4597603             -12.5107
        31        2.0000           -0.4457205             -12.1287
        32        2.0000           -0.4376102             -11.9080
        33        2.0000           -0.4122515             -11.2179
        34        2.0000           -0.4078475             -11.0981
        35        2.0000           -0.4034950             -10.9797
        36        2.0000           -0.4033098             -10.9746 (HOMO)
        37                         -0.2363105              -6.4303 (LUMO)
        38                         -0.0666710              -1.8142
        39                         -0.0010491              -0.0285
        40                          0.0295471               0.8040
        41                          0.0400090               1.0887
        42                          0.0522463               1.4217
        43                          0.0575021               1.5647
        44                          0.0583071               1.5866
        45                          0.0633789               1.7246
        46                          0.0638732               1.7381
        47                          0.0666641               1.8140
       ...                                ...                  ...
        69                          0.6439125              17.5218
      -------------------------------------------------------------
                  HL-Gap            0.1669992 Eh            4.5443 eV

     #   Z          covCN         q      C6AA      α(0)
     1   7 N        2.700    -0.304    27.824     7.834
     2   6 C        3.734     0.002    20.633     6.483
     3   6 C        3.856    -0.036    21.178     6.545
     4   6 C        3.808    -0.062    21.683     6.629
     5   6 C        3.807    -0.056    21.583     6.614
     6   6 C        3.856    -0.062    21.644     6.617
     7   6 C        2.690     0.353    21.004     7.501
     8   8 O        1.659    -0.372    20.310     6.084
     9   8 O        0.856    -0.370    21.086     6.157
    10   6 C        3.807    -0.056    21.577     6.613
    11   6 C        3.809    -0.063    21.699     6.631
    12  17 Cl       0.837    -0.489   115.290    16.426
    13   1 H        0.860     0.168     1.282     1.774
    14   1 H        0.860     0.169     1.277     1.770
    15   1 H        0.906     0.332     0.622     1.233
    16   1 H        0.923     0.027     2.626     2.534
    17   1 H        0.924     0.052     2.291     2.367
    18   1 H        0.924     0.065     2.137     2.286
    19   1 H        0.924     0.039     2.465     2.455
    20   1 H        0.924     0.038     2.472     2.459
    21   1 H        0.924     0.035     2.510     2.478
    22   1 H        0.924     0.042     2.427     2.436
    23   1 H        0.924     0.064     2.157     2.297
    24   1 H        0.805     0.323     0.654     1.271
    25   1 H        0.924     0.035     2.518     2.482
    26   1 H        0.924     0.043     2.409     2.427
    27   1 H        0.924     0.040     2.445     2.445
    28   1 H        0.924     0.040     2.448     2.447

Wiberg/Mayer (AO) data.
largest (>0.10) Wiberg bond orders for each atom

     #   Z sym  total        # sym  WBO       # sym  WBO       # sym  WBO
 ---------------------------------------------------------------------------
     1   7 N    3.245 --     2 C    1.006    13 H    0.958    14 H    0.954
                            15 H    0.212
     2   6 C    3.973 --     1 N    1.006     3 C    0.993    17 H    0.974
                            16 H    0.971
     3   6 C    3.992 --     4 C    0.998    11 C    0.996     2 C    0.993
                            18 H    0.960
     4   6 C    3.997 --     5 C    1.005     3 C    0.998    20 H    0.976
                            19 H    0.972
     5   6 C    3.996 --     4 C    1.005     6 C    0.984    22 H    0.976
                            21 H    0.971
     6   6 C    3.993 --     5 C    0.984    10 C    0.983    23 H    0.964
                             7 C    0.953
     7   6 C    3.914 --     9 O    1.797     8 O    1.124     6 C    0.953
     8   8 O    2.204 --     7 C    1.124    24 H    0.865     9 O    0.164
     9   8 O    2.070 --     7 C    1.797     8 O    0.164
    10   6 C    3.996 --    11 C    1.006     6 C    0.983    26 H    0.976
                            25 H    0.972
    11   6 C    3.997 --    10 C    1.006     3 C    0.996    28 H    0.976
                            27 H    0.975
    12  17 Cl   0.764 --    15 H    0.673
    13   1 H    0.971 --     1 N    0.958
    14   1 H    0.971 --     1 N    0.954
    15   1 H    0.890 --    12 Cl   0.673     1 N    0.212
    16   1 H    0.999 --     2 C    0.971
    17   1 H    0.997 --     2 C    0.974
    18   1 H    0.996 --     3 C    0.960
    19   1 H    0.998 --     4 C    0.972
    20   1 H    0.998 --     4 C    0.976
    21   1 H    0.999 --     5 C    0.971
    22   1 H    0.998 --     5 C    0.976
    23   1 H    0.996 --     6 C    0.964
    24   1 H    0.895 --     8 O    0.865
    25   1 H    0.999 --    10 C    0.972
    26   1 H    0.998 --    10 C    0.976
    27   1 H    0.998 --    11 C    0.975
    28   1 H    0.998 --    11 C    0.976
 ---------------------------------------------------------------------------

molecular dipole:
                 x           y           z       tot (Debye)
 q only:       -0.460       1.167       1.766
   full:       -0.793       1.594       1.638       6.149

           -------------------------------------------------
          | TOTAL ENERGY              -40.920041366192 Eh   |
          | GRADIENT NORM               0.000895411501 Eh/α |
          | HOMO-LUMO GAP               4.544280631978 eV   |
           -------------------------------------------------

 * finished run on 2023/01/23 at 18:54:27.023
