   * xtb version 6.5.1 (fef0646) compiled by 'conda@b96dff2e9fd6' on 2023-01-04
          program call               : xtb init.xyz --opt -c 0 -u 0 -P 16

   ID    Z sym.   atoms
    1    7 N      1, 24, 26
    2    6 C      2-21, 23, 27
    3   16 S      22, 25, 28, 29
    4   17 Cl     30
    5    1 H      31-50

          :  Hamiltonian                  GFN2-xTB          :
 * total energy  :   -83.5674880 Eh     change       -0.2540219E-08 Eh
 * total energy  :   -83.5875064 Eh     change       -0.2001844E-01 Eh
 * total energy  :   -83.5964109 Eh     change       -0.8904534E-02 Eh
 * total energy  :   -83.6000403 Eh     change       -0.3629389E-02 Eh
 * total energy  :   -83.6034424 Eh     change       -0.3402042E-02 Eh
 * total energy  :   -83.6058800 Eh     change       -0.2437621E-02 Eh
 * total energy  :   -83.6078354 Eh     change       -0.1955449E-02 Eh
 * total energy  :   -83.6088222 Eh     change       -0.9867374E-03 Eh
 * total energy  :   -83.6092616 Eh     change       -0.4394137E-03 Eh
 * total energy  :   -83.6094050 Eh     change       -0.1434314E-03 Eh
 * total energy  :   -83.6105581 Eh     change       -0.2670979E-04 Eh
 * total energy  :   -83.6105720 Eh     change       -0.1396892E-04 Eh
 * total energy  :   -83.6105926 Eh     change       -0.2058104E-04 Eh
 * total energy  :   -83.6106040 Eh     change       -0.1142718E-04 Eh
 * total energy  :   -83.6106222 Eh     change       -0.1812832E-04 Eh
 * total energy  :   -83.6106371 Eh     change       -0.1497045E-04 Eh
 * total energy  :   -83.6106474 Eh     change       -0.1030592E-04 Eh
 * total energy  :   -83.6106550 Eh     change       -0.7575287E-05 Eh
 * total energy  :   -83.6106600 Eh     change       -0.4929734E-05 Eh
   *** GEOMETRY OPTIMIZATION CONVERGED AFTER 34 ITERATIONS ***

 final structure:
================
50
 xtb: 6.5.1 (fef0646)
N            1.39118422323146        0.11048306819919       -2.49458808837771
C            2.60488043473566       -0.04484713021346       -1.70111309470820
C            3.71343231048946       -0.81037810683476       -2.43079084290833
C            4.95110911197456       -0.97452543100512       -1.61211459010189
C            5.23488997769884       -0.51939052372659       -0.36011628691007
C            6.52204480291938       -0.87284224301081        0.08516401828326
C            7.23436410416352       -1.60456822371754       -0.83041599523624
C            8.55637923101090       -2.12811960977338       -0.71124122858873
C            9.43006102789630       -1.97046143132139        0.33878238605383
C           10.66113591769261       -2.62136961204682        0.16294100387092
C           11.75320857699156       -2.51079268023134        1.17757021365035
C           10.73373907503795       -3.29281166226358       -1.04435511029006
C           11.79056626990296       -4.09746318821644       -1.59915951154037
C           12.75042586606344       -4.75640739680449       -0.84973565659829
C           13.76452169883271       -5.53191010997559       -1.42081577528917
C           13.89257913229021       -5.72359923479893       -2.78451012246180
C           14.93016780283428       -6.52276573361406       -3.39107333925854
C           15.57742627399431       -7.63868126114171       -2.90912520250778
C           15.28431248282807       -8.33745632559230       -1.62101454672155
C           16.55063763195003       -8.11942886089799       -3.81531410252535
C           16.63670524905795       -7.38388733291326       -4.95326593497084
S           15.51290546292135       -6.08955206815254       -4.97421034087433
C           12.92903387315972       -5.06689554924738       -3.59176822130638
N           12.83865520917543       -5.10264185182767       -4.91962693423941
S           11.57447573600976       -4.22643829900801       -5.38235606071644
N           11.07442875932698       -3.75974160603577       -3.92712732595243
C           11.88299467465074       -4.27567232657469       -3.00500930075997
S            9.27619617544186       -3.07749713942486       -1.97163448464601
S            6.29142044527031       -1.86171187172791       -2.27118454322780
Cl          -0.60839396989469        1.67096923307585       -0.98991295162206
H            0.31046327279953        0.94851445473338       -1.68022485085763
H            0.99353906455619       -0.79335745641670       -2.72897140283544
H            1.58538132371685        0.60841005459531       -3.35747079379996
H            2.33399310856056       -0.56929534147416       -0.78268563645192
H            2.95548978256679        0.95509105815586       -1.43805498150100
H            3.96693808256921       -0.28307820822595       -3.35775470597598
H            3.34217033769855       -1.80098547599577       -2.71704142761752
H            4.54949399145491        0.05360499148922        0.23729005874693
H            6.90858752678547       -0.59859544708869        1.04945177896660
H            9.19610581483343       -1.39559195694533        1.21697603586517
H           11.61052689702040       -1.60809620218966        1.76777629492595
H           12.72872785472961       -2.46575981500799        0.69816347825052
H           11.73851203642319       -3.36123573131116        1.86022744714680
H           12.71257413600056       -4.69830482957429        0.22484435251394
H           14.48870473802757       -5.97776999847829       -0.75878976199126
H           14.23604017906136       -8.23252013095806       -1.34970080665902
H           15.89455311891371       -7.93333881909884       -0.81224446579171
H           15.51915069170184       -9.39550351252612       -1.71776633795179
H           17.15804164881297       -8.98514761507534       -3.61708394586196
H           17.28987882610970       -7.53141550978218       -5.79022835863839

          :  Hamiltonian                  GFN2-xTB          :
         :: total energy             -83.610659951808 Eh    ::
         :: gradient norm              0.000659424403 Eh/a0 ::
         :: HOMO-LUMO gap              1.388946135692 eV    ::
         :: SCC energy               -84.758648587069 Eh    ::
         :: -> dispersion             -0.066905019033 Eh    ::
         :: repulsion energy           1.148691705604 Eh    ::

    * Orbital Energies and Occupations

         #    Occupation            Energy/Eh            Energy/eV
      -------------------------------------------------------------
         1        2.0000           -1.0209753             -27.7822
       ...           ...                  ...                  ...
        65        2.0000           -0.4230593             -11.5120
        66        2.0000           -0.4110600             -11.1855
        67        2.0000           -0.4105228             -11.1709
        68        2.0000           -0.4089847             -11.1290
        69        2.0000           -0.4055962             -11.0368
        70        2.0000           -0.4035949             -10.9824
        71        2.0000           -0.3985223             -10.8443
        72        2.0000           -0.3980413             -10.8313
        73        2.0000           -0.3980027             -10.8302
        74        2.0000           -0.3890507             -10.5866
        75        2.0000           -0.3862196             -10.5096
        76        2.0000           -0.3785052             -10.2996
        77        2.0000           -0.3571790              -9.7193 (HOMO)
        78                         -0.3061362              -8.3304 (LUMO)
        79                         -0.2729240              -7.4266
        80                         -0.2499704              -6.8020
        81                         -0.2262538              -6.1567
        82                         -0.2201943              -5.9918
        83                         -0.2167390              -5.8978
        84                         -0.2128472              -5.7919
        85                         -0.1977831              -5.3820
        86                         -0.1921499              -5.2287
        87                         -0.1825373              -4.9671
        88                         -0.1750027              -4.7621
       ...                                ...                  ...
       165                          0.7290051              19.8372
      -------------------------------------------------------------
                  HL-Gap            0.0510428 Eh            1.3889 eV

     #   Z          covCN         q      C6AA      α(0)
     1   7 N        2.668    -0.310    27.983     7.856
     2   6 C        3.733     0.001    20.656     6.487
     3   6 C        3.828    -0.068    21.777     6.640
     4   6 C        2.985     0.017    27.617     8.620
     5   6 C        3.106    -0.057    29.273     8.865
     6   6 C        3.109    -0.053    29.167     8.848
     7   6 C        3.018     0.020    27.530     8.607
     8   6 C        3.014     0.016    27.625     8.622
     9   6 C        3.111    -0.062    29.391     8.882
    10   6 C        3.130    -0.001    27.841     8.639
    11   6 C        3.755    -0.103    22.530     6.768
    12   6 C        2.995     0.012    27.747     8.641
    13   6 C        3.000    -0.004    28.112     8.697
    14   6 C        2.923    -0.045    29.126     8.850
    15   6 C        2.923    -0.044    29.095     8.846
    16   6 C        2.997    -0.004    28.102     8.696
    17   6 C        2.998     0.010    27.782     8.646
    18   6 C        3.140    -0.003    27.862     8.638
    19   6 C        3.755    -0.103    22.515     6.766
    20   6 C        3.118    -0.054    29.171     8.846
    21   6 C        2.934    -0.023    28.584     8.768
    22  16 S        2.332    -0.014   141.638    20.031
    23   6 C        3.353     0.072    23.717     7.666
    24   7 N        1.860    -0.262    27.662     7.796
    25  16 S        2.674     0.331   128.272    19.062
    26   7 N        1.875    -0.261    27.646     7.794
    27   6 C        3.354     0.072    23.705     7.663
    28  16 S        2.393    -0.017   141.764    20.039
    29  16 S        2.379    -0.042   142.785    20.111
    30  17 Cl       0.839    -0.468   114.512    16.370
    31   1 H        0.878     0.332     0.625     1.238
    32   1 H        0.860     0.167     1.292     1.781
    33   1 H        0.860     0.167     1.291     1.780
    34   1 H        0.924     0.059     2.214     2.327
    35   1 H        0.924     0.059     2.209     2.324
    36   1 H        0.924     0.050     2.322     2.383
    37   1 H        0.924     0.050     2.325     2.385
    38   1 H        0.926     0.040     2.452     2.449
    39   1 H        0.926     0.039     2.462     2.454
    40   1 H        0.926     0.037     2.493     2.469
    41   1 H        0.925     0.048     2.345     2.395
    42   1 H        0.925     0.047     2.358     2.401
    43   1 H        0.924     0.046     2.365     2.405
    44   1 H        0.926     0.045     2.382     2.413
    45   1 H        0.926     0.044     2.391     2.418
    46   1 H        0.925     0.044     2.391     2.418
    47   1 H        0.924     0.045     2.381     2.413
    48   1 H        0.925     0.047     2.355     2.400
    49   1 H        0.926     0.036     2.499     2.472
    50   1 H        0.926     0.045     2.378     2.411

Wiberg/Mayer (AO) data.
largest (>0.10) Wiberg bond orders for each atom

     #   Z sym  total        # sym  WBO       # sym  WBO       # sym  WBO
 ---------------------------------------------------------------------------
     1   7 N    3.222 --     2 C    1.013    32 H    0.958    33 H    0.958
                            31 H    0.183
     2   6 C    3.974 --     1 N    1.013     3 C    0.995    34 H    0.973
                            35 H    0.973
     3   6 C    3.996 --     4 C    1.022     2 C    0.995    37 H    0.961
                            36 H    0.960
     4   6 C    3.926 --     5 C    1.576    29 S    1.159     3 C    1.022
     5   6 C    3.984 --     4 C    1.576     6 C    1.296    38 H    0.963
     6   6 C    3.970 --     7 C    1.504     5 C    1.296    39 H    0.964
     7   6 C    3.950 --     6 C    1.504     8 C    1.159    29 S    1.124
     8   6 C    3.935 --     9 C    1.465     7 C    1.159    28 S    1.151
     9   6 C    3.978 --     8 C    1.465    10 C    1.321    40 H    0.963
    10   6 C    3.954 --    12 C    1.448     9 C    1.321    11 C    1.024
    11   6 C    3.995 --    10 C    1.024    41 H    0.981    42 H    0.976
                            43 H    0.966
    12   6 C    3.933 --    10 C    1.448    13 C    1.137    28 S    1.132
    13   6 C    3.954 --    14 C    1.438    27 C    1.188    12 C    1.137
    14   6 C    3.978 --    13 C    1.438    15 C    1.357    44 H    0.964
    15   6 C    3.989 --    16 C    1.446    14 C    1.357    45 H    0.965
    16   6 C    3.945 --    15 C    1.446    23 C    1.193    17 C    1.119
    17   6 C    3.946 --    18 C    1.492    22 S    1.131    16 C    1.119
    18   6 C    3.954 --    17 C    1.492    20 C    1.273    19 C    1.024
    19   6 C    3.996 --    18 C    1.024    48 H    0.980    46 H    0.978
                            47 H    0.967
    20   6 C    3.983 --    21 C    1.602    18 C    1.273    49 H    0.965
    21   6 C    3.931 --    20 C    1.602    22 S    1.211    50 H    0.970
    22  16 S    2.639 --    21 C    1.211    17 C    1.131
    23   6 C    3.973 --    24 N    1.391    16 C    1.193    27 C    1.171
    24   7 N    3.095 --    25 S    1.426    23 C    1.391    26 N    0.164
    25  16 S    3.175 --    24 N    1.426    26 N    1.418
    26   7 N    3.107 --    25 S    1.418    27 C    1.395    24 N    0.164
    27   6 C    3.971 --    26 N    1.395    13 C    1.188    23 C    1.171
    28  16 S    2.635 --     8 C    1.151    12 C    1.132
    29  16 S    2.573 --     4 C    1.159     7 C    1.124
    30  17 Cl   0.782 --    31 H    0.704
    31   1 H    0.890 --    30 Cl   0.704     1 N    0.183
    32   1 H    0.972 --     1 N    0.958
    33   1 H    0.972 --     1 N    0.958
    34   1 H    0.997 --     2 C    0.973
    35   1 H    0.996 --     2 C    0.973
    36   1 H    0.995 --     3 C    0.960
    37   1 H    0.995 --     3 C    0.961
    38   1 H    0.998 --     5 C    0.963
    39   1 H    0.998 --     6 C    0.964
    40   1 H    0.998 --     9 C    0.963
    41   1 H    0.997 --    11 C    0.981
    42   1 H    0.997 --    11 C    0.976
    43   1 H    0.996 --    11 C    0.966
    44   1 H    0.996 --    14 C    0.964
    45   1 H    0.996 --    15 C    0.965
    46   1 H    0.997 --    19 C    0.978
    47   1 H    0.996 --    19 C    0.967
    48   1 H    0.997 --    19 C    0.980
    49   1 H    0.998 --    20 C    0.965
    50   1 H    0.997 --    21 C    0.970
 ---------------------------------------------------------------------------

molecular dipole:
                 x           y           z       tot (Debye)
 q only:        1.387      -1.072      -0.492
   full:        1.511      -1.113       0.205       4.800

           -------------------------------------------------
          | TOTAL ENERGY              -83.610659951808 Eh   |
          | GRADIENT NORM               0.000659424403 Eh/α |
          | HOMO-LUMO GAP               1.388946135692 eV   |
           -------------------------------------------------

 * finished run on 2023/01/23 at 13:58:51.103
