   * xtb version 6.5.1 (fef0646) compiled by 'conda@b96dff2e9fd6' on 2023-01-04
          program call               : xtb init.xyz --opt -c 0 -u 0 -P 16 --alpb water

   ID    Z sym.   atoms
    1    7 N      1
    2    6 C      2-6
    3   17 Cl     7
    4    1 H      8-19

      * Solvation model:               ALPB
        Solvent                        water
        Solvent mass                       1.8000E+01 g/mol
          :  Hamiltonian                  GFN2-xTB          :
 * total energy  :   -24.3434434 Eh     change       -0.5002789E-09 Eh
 * total energy  :   -24.3472026 Eh     change       -0.3759185E-02 Eh
 * total energy  :   -24.3481836 Eh     change       -0.9810782E-03 Eh
 * total energy  :   -24.3485557 Eh     change       -0.3720328E-03 Eh
 * total energy  :   -24.3487261 Eh     change       -0.1704326E-03 Eh
 * total energy  :   -24.3488727 Eh     change       -0.1465831E-03 Eh
 * total energy  :   -24.3489475 Eh     change       -0.7475701E-04 Eh
 * total energy  :   -24.3489682 Eh     change       -0.2074275E-04 Eh
 * total energy  :   -24.3489738 Eh     change       -0.5558073E-05 Eh
 * total energy  :   -24.3489747 Eh     change       -0.9777072E-06 Eh
   *** GEOMETRY OPTIMIZATION CONVERGED AFTER 10 ITERATIONS ***

 final structure:
================
19
 xtb: 6.5.1 (fef0646)
N            1.89246034878882        0.13577631689906        0.17375579066575
C            0.71026515265808        0.15202564770633       -0.72080391790810
C           -0.08626585888709       -1.14941746058665       -0.56978795865175
C           -1.21557094049122       -0.79111650874472        0.39305263184225
C           -1.60226380592185        0.61116690716650       -0.06388525025273
C           -0.24636107153680        1.28178315158310       -0.30032472618355
Cl           1.36116048916809       -0.00080883466402        3.18369120071184
H            2.51021211501197       -0.65130788291928       -0.03845453690587
H            1.60484575597241        0.04296600536667        1.18262907955130
H            2.42061244425924        1.00902761075451        0.10412515409411
H            1.06657816199047        0.28191908879187       -1.74419886721520
H            0.52620520596390       -1.96503583600213       -0.19422530934741
H           -0.50636261064839       -1.44281924845526       -1.53091902668919
H           -0.83667155758365       -0.75540017618640        1.41574930170353
H           -2.04479709214128       -1.49450255269608        0.35569951380198
H           -2.20026046528655        1.14248887839379        0.67363474934263
H           -2.17042388491774        0.55385256883328       -0.99328686550389
H            0.09986104164652        1.70828370276250        0.64063295069415
H           -0.30888342804486        2.07508862199708       -1.04102391374985

          :  Hamiltonian                  GFN2-xTB          :
         :: total energy             -24.348974733381 Eh    ::
         :: gradient norm              0.000407134908 Eh/a0 ::
         :: HOMO-LUMO gap             10.118015217361 eV    ::
         :: SCC energy               -24.624601311267 Eh    ::
         :: -> dispersion             -0.012519689974 Eh    ::
         :: -> Gsolv                  -0.068761556676 Eh    ::
         :: repulsion energy           0.275555059538 Eh    ::

    * Orbital Energies and Occupations

         #    Occupation            Energy/Eh            Energy/eV
      -------------------------------------------------------------
         1        2.0000           -1.0060309             -27.3755
       ...           ...                  ...                  ...
        10        2.0000           -0.5319618             -14.4754
        11        2.0000           -0.5125830             -13.9481
        12        2.0000           -0.4998194             -13.6008
        13        2.0000           -0.4796554             -13.0521
        14        2.0000           -0.4538913             -12.3510
        15        2.0000           -0.4463248             -12.1451
        16        2.0000           -0.4368001             -11.8859
        17        2.0000           -0.4351982             -11.8423
        18        2.0000           -0.4309255             -11.7261
        19        2.0000           -0.4165750             -11.3356
        20        2.0000           -0.4023375             -10.9482
        21        2.0000           -0.4000273             -10.8853
        22        2.0000           -0.3988887             -10.8543 (HOMO)
        23                         -0.0270585              -0.7363 (LUMO)
        24                          0.0556696               1.5148
        25                          0.0581942               1.5835
        26                          0.0679278               1.8484
        27                          0.1031065               2.8057
        28                          0.1084785               2.9519
        29                          0.1174358               3.1956
        30                          0.1178204               3.2061
        31                          0.1195289               3.2525
        32                          0.1200522               3.2668
        33                          0.1350620               3.6752
       ...                                ...                  ...
        45                          0.3425596               9.3215
      -------------------------------------------------------------
                  HL-Gap            0.3718302 Eh           10.1180 eV

     #   Z          covCN         q      C6AA      α(0)
     1   7 N        3.485    -0.179    24.855     7.405
     2   6 C        3.800     0.030    20.075     6.379
     3   6 C        3.831    -0.082    22.048     6.681
     4   6 C        3.831    -0.065    21.717     6.630
     5   6 C        3.830    -0.063    21.688     6.626
     6   6 C        3.827    -0.084    22.078     6.686
     7  17 Cl       0.043    -0.949   124.930    17.011
     8   1 H        0.859     0.296     0.724     1.333
     9   1 H        0.900     0.297     0.719     1.327
    10   1 H        0.859     0.297     0.722     1.331
    11   1 H        0.924     0.095     1.827     2.114
    12   1 H        0.925     0.063     2.169     2.303
    13   1 H        0.925     0.067     2.115     2.274
    14   1 H        0.924     0.043     2.415     2.430
    15   1 H        0.925     0.032     2.558     2.501
    16   1 H        0.925     0.030     2.584     2.514
    17   1 H        0.924     0.043     2.408     2.427
    18   1 H        0.925     0.065     2.137     2.286
    19   1 H        0.925     0.063     2.167     2.302

Wiberg/Mayer (AO) data.
largest (>0.10) Wiberg bond orders for each atom

     #   Z sym  total        # sym  WBO       # sym  WBO       # sym  WBO
 ---------------------------------------------------------------------------
     1   7 N    3.640 --     2 C    0.953    10 H    0.896     8 H    0.895
                             9 H    0.831
     2   6 C    3.934 --     3 C    0.996     6 C    0.992    11 H    0.964
                             1 N    0.953
     3   6 C    3.992 --     4 C    1.008     2 C    0.996    13 H    0.975
                            12 H    0.973
     4   6 C    3.996 --     5 C    1.009     3 C    1.008    15 H    0.979
                            14 H    0.977
     5   6 C    3.997 --     4 C    1.009     6 C    1.005    16 H    0.980
                            17 H    0.979
     6   6 C    3.991 --     5 C    1.005     2 C    0.992    19 H    0.978
                            18 H    0.973
     7  17 Cl   0.100
     8   1 H    0.912 --     1 N    0.895
     9   1 H    0.912 --     1 N    0.831
    10   1 H    0.912 --     1 N    0.896
    11   1 H    0.991 --     2 C    0.964
    12   1 H    0.996 --     3 C    0.973
    13   1 H    0.995 --     3 C    0.975
    14   1 H    0.998 --     4 C    0.977
    15   1 H    0.999 --     4 C    0.979
    16   1 H    0.999 --     5 C    0.980
    17   1 H    0.998 --     5 C    0.979
    18   1 H    0.996 --     6 C    0.973
    19   1 H    0.996 --     6 C    0.978
 ---------------------------------------------------------------------------

molecular dipole:
                 x           y           z       tot (Debye)
 q only:        0.690       0.241      -5.494
   full:        0.756       0.217      -4.659      12.010

           -------------------------------------------------
          | TOTAL ENERGY              -24.348974733381 Eh   |
          | GRADIENT NORM               0.000407134908 Eh/α |
          | HOMO-LUMO GAP              10.118015217361 eV   |
           -------------------------------------------------

 * finished run on 2023/01/24 at 15:11:13.409
