   * xtb version 6.5.1 (fef0646) compiled by 'conda@b96dff2e9fd6' on 2023-01-04
          program call               : xtb init.xyz --opt -c 0 -u 0 -P 16 --input xtb.inp

   ID    Z sym.   atoms
    1    7 N      1
    2    6 C      2-6
    3   17 Cl     7
    4    1 H      8-19

          :  Hamiltonian                  GFN2-xTB          :
 * total energy  :   -24.2914526 Eh     change       -0.2589928E-10 Eh
 * total energy  :   -24.2969860 Eh     change       -0.5533367E-02 Eh
 * total energy  :   -24.3012687 Eh     change       -0.4282696E-02 Eh
 * total energy  :   -24.3037638 Eh     change       -0.2495154E-02 Eh
 * total energy  :   -24.3056304 Eh     change       -0.1866546E-02 Eh
 * total energy  :   -24.3070591 Eh     change       -0.1428703E-02 Eh
 * total energy  :   -24.3075898 Eh     change       -0.5307534E-03 Eh
 * total energy  :   -24.3077465 Eh     change       -0.1567065E-03 Eh
 * total energy  :   -24.3078194 Eh     change       -0.7282877E-04 Eh
 * total energy  :   -24.3078510 Eh     change       -0.3161912E-04 Eh
 * total energy  :   -24.3078750 Eh     change       -0.2405553E-04 Eh
 * total energy  :   -24.3078838 Eh     change       -0.8750721E-05 Eh
 * total energy  :   -24.3078883 Eh     change       -0.4561313E-05 Eh
   *** GEOMETRY OPTIMIZATION CONVERGED AFTER 13 ITERATIONS ***

 final structure:
================
19
 xtb: 6.5.1 (fef0646)
N            1.92843588368671       -0.01876690947428        0.12389664178811
C            0.71699538979497        0.09661711463674       -0.69364691582887
C           -0.11762688403115       -1.19266127708713       -0.59153915238475
C           -1.27232558107629       -0.84751762260843        0.34660351795700
C           -1.57152263022374        0.60602196150399       -0.00068378929625
C           -0.17891434658673        1.22038733477127       -0.13887397675950
Cl           1.40563002560686       -0.59875876841180        2.94233359001131
H            2.52831098949249       -0.76339995370845       -0.21576337480123
H            1.59953422326805       -0.33326840842606        1.59589999700196
H            2.45241979252554        0.85021241577880        0.11976252078646
H            0.98257716065379        0.29497162579439       -1.74279624627413
H            0.48030786277020       -2.02181417229521       -0.21799998529221
H           -0.50378869218707       -1.46125845025124       -1.57554652296811
H           -0.94045053643505       -0.91808898102053        1.38116418455325
H           -2.13079651024235       -1.50157994732656        0.20564809728069
H           -2.16642941194548        1.10728429389354        0.76010739435890
H           -2.10663428041403        0.66150104563475       -0.95062503048494
H            0.19030613095434        1.50441082431695        0.84635551430984
H           -0.17638858561113        2.10200787427918       -0.77851646395750

          :  Hamiltonian                  GFN2-xTB          :
         :: total energy             -24.307888343283 Eh    ::
         :: gradient norm              0.000353326967 Eh/a0 ::
         :: HOMO-LUMO gap              9.200980326711 eV    ::
         :: SCC energy               -24.574359880567 Eh    ::
         :: -> dispersion             -0.013297143613 Eh    ::
         :: repulsion energy           0.266400191257 Eh    ::

    * Orbital Energies and Occupations

         #    Occupation            Energy/Eh            Energy/eV
      -------------------------------------------------------------
         1        2.0000           -1.0143708             -27.6024
       ...           ...                  ...                  ...
        10        2.0000           -0.5317582             -14.4699
        11        2.0000           -0.5087195             -13.8430
        12        2.0000           -0.4979969             -13.5512
        13        2.0000           -0.4902578             -13.3406
        14        2.0000           -0.4598555             -12.5133
        15        2.0000           -0.4542275             -12.3602
        16        2.0000           -0.4469217             -12.1614
        17        2.0000           -0.4449856             -12.1087
        18        2.0000           -0.4418546             -12.0235
        19        2.0000           -0.4259511             -11.5907
        20        2.0000           -0.3954836             -10.7617
        21        2.0000           -0.3913905             -10.6503
        22        2.0000           -0.3908156             -10.6346 (HOMO)
        23                         -0.0526858              -1.4337 (LUMO)
        24                          0.0146607               0.3989
        25                          0.0481594               1.3105
        26                          0.0546411               1.4869
        27                          0.0705750               1.9204
        28                          0.0711655               1.9365
        29                          0.0760440               2.0693
        30                          0.0767071               2.0873
        31                          0.0864424               2.3522
        32                          0.0977422               2.6597
        33                          0.1264129               3.4399
       ...                                ...                  ...
        45                          0.3286948               8.9442
      -------------------------------------------------------------
                  HL-Gap            0.3381298 Eh            9.2010 eV

     #   Z          covCN         q      C6AA      α(0)
     1   7 N        2.716    -0.303    27.804     7.831
     2   6 C        3.796     0.048    19.776     6.332
     3   6 C        3.827    -0.071    21.845     6.650
     4   6 C        3.829    -0.067    21.762     6.638
     5   6 C        3.828    -0.059    21.605     6.614
     6   6 C        3.827    -0.075    21.912     6.661
     7  17 Cl       0.835    -0.501   115.703    16.455
     8   1 H        0.860     0.166     1.300     1.786
     9   1 H        0.919     0.334     0.616     1.228
    10   1 H        0.860     0.166     1.298     1.785
    11   1 H        0.923     0.015     2.808     2.621
    12   1 H        0.925     0.047     2.358     2.402
    13   1 H        0.924     0.038     2.476     2.461
    14   1 H        0.925     0.062     2.179     2.308
    15   1 H        0.925     0.036     2.506     2.476
    16   1 H        0.925     0.039     2.462     2.454
    17   1 H        0.924     0.033     2.547     2.496
    18   1 H        0.925     0.060     2.202     2.321
    19   1 H        0.925     0.034     2.535     2.490

Wiberg/Mayer (AO) data.
largest (>0.10) Wiberg bond orders for each atom

     #   Z sym  total        # sym  WBO       # sym  WBO       # sym  WBO
 ---------------------------------------------------------------------------
     1   7 N    3.257 --     2 C    0.992    10 H    0.957     8 H    0.957
                             9 H    0.224
     2   6 C    3.971 --     1 N    0.992     3 C    0.991     6 C    0.990
                            11 H    0.970
     3   6 C    3.995 --     4 C    1.007     2 C    0.991    13 H    0.980
                            12 H    0.976
     4   6 C    3.994 --     5 C    1.008     3 C    1.007    15 H    0.979
                            14 H    0.975
     5   6 C    3.997 --     4 C    1.008     6 C    1.006    17 H    0.980
                            16 H    0.979
     6   6 C    3.994 --     5 C    1.006     2 C    0.990    19 H    0.981
                            18 H    0.974
     7  17 Cl   0.754 --     9 H    0.658
     8   1 H    0.973 --     1 N    0.957
     9   1 H    0.888 --     7 Cl   0.658     1 N    0.224
    10   1 H    0.972 --     1 N    0.957
    11   1 H    1.000 --     2 C    0.970
    12   1 H    0.998 --     3 C    0.976
    13   1 H    0.999 --     3 C    0.980
    14   1 H    0.996 --     4 C    0.975
    15   1 H    0.999 --     4 C    0.979
    16   1 H    0.998 --     5 C    0.979
    17   1 H    0.999 --     5 C    0.980
    18   1 H    0.996 --     6 C    0.974
    19   1 H    0.999 --     6 C    0.981
 ---------------------------------------------------------------------------

molecular dipole:
                 x           y           z       tot (Debye)
 q only:        0.076       0.374      -1.849
   full:        0.300       0.359      -1.724       4.541

           -------------------------------------------------
          | TOTAL ENERGY              -24.307888343283 Eh   |
          | GRADIENT NORM               0.000353326967 Eh/α |
          | HOMO-LUMO GAP               9.200980326711 eV   |
           -------------------------------------------------

 * finished run on 2023/01/23 at 18:42:31.233
