   * xtb version 6.5.1 (fef0646) compiled by 'conda@b96dff2e9fd6' on 2023-01-04
          program call               : xtb init.xyz --opt -c 0 -u 0 -P 16 --alpb water

   ID    Z sym.   atoms
    1    7 N      1
    2    6 C      2-5, 7, 9, 11, 13
    3    9 F      6, 8, 10, 12, 14
    4   17 Cl     15
    5    1 H      16-22

      * Solvation model:               ALPB
        Solvent                        water
        Solvent mass                       1.8000E+01 g/mol
          :  Hamiltonian                  GFN2-xTB          :
 * total energy  :   -51.8356512 Eh     change       -0.5200533E-09 Eh
 * total energy  :   -51.8398584 Eh     change       -0.4207188E-02 Eh
 * total energy  :   -51.8409612 Eh     change       -0.1102843E-02 Eh
 * total energy  :   -51.8414390 Eh     change       -0.4777245E-03 Eh
 * total energy  :   -51.8424243 Eh     change       -0.9852913E-03 Eh
 * total energy  :   -51.8435909 Eh     change       -0.1166675E-02 Eh
 * total energy  :   -51.8445765 Eh     change       -0.9856117E-03 Eh
 * total energy  :   -51.8451773 Eh     change       -0.6007030E-03 Eh
 * total energy  :   -51.8454997 Eh     change       -0.3224026E-03 Eh
 * total energy  :   -51.8455826 Eh     change       -0.8291322E-04 Eh
 * total energy  :   -51.8465670 Eh     change       -0.1311516E-04 Eh
 * total energy  :   -51.8465877 Eh     change       -0.2071524E-04 Eh
 * total energy  :   -51.8466076 Eh     change       -0.1986550E-04 Eh
 * total energy  :   -51.8466163 Eh     change       -0.8763181E-05 Eh
 * total energy  :   -51.8466254 Eh     change       -0.9023986E-05 Eh
 * total energy  :   -51.8466340 Eh     change       -0.8623025E-05 Eh
 * total energy  :   -51.8466427 Eh     change       -0.8679562E-05 Eh
 * total energy  :   -51.8466490 Eh     change       -0.6309539E-05 Eh
 * total energy  :   -51.8466537 Eh     change       -0.4781680E-05 Eh
   *** GEOMETRY OPTIMIZATION CONVERGED AFTER 27 ITERATIONS ***

 final structure:
================
22
 xtb: 6.5.1 (fef0646)
N            0.99640079201163       -0.08124693270706       -0.26819180116296
C            2.46864863829667       -0.11622827287613       -0.28821358769851
C            2.99470465218837        1.05862248896480        0.54523498643506
C            4.47843710989537        1.00922153005908        0.73625527230514
C            5.33075440266098        1.91122043754123        0.10443785144920
F            4.81278446240211        2.83812427144708       -0.71339712975907
C            6.70802627896765        1.89039906281453        0.29211260279856
F            7.49032957367586        2.78116138012677       -0.33387737606102
C            7.27302582131588        0.94021631667690        1.13311905848715
F            8.59819680383452        0.91016759680363        1.32632103934193
C            6.44972854316669        0.02113739626280        1.77343351000360
F            6.98580064031618       -0.89994599506783        2.58768056629930
C            5.07628681299269        0.06436171593728        1.56832158201055
F            4.30879799060251       -0.83513398837777        2.19611002299430
Cl           0.23771603806403        0.17083638754025        2.67261301108494
H            0.59459114939755       -0.91135463446760       -0.70939058308294
H            0.64013731751271        0.76124642485002       -0.72659462937334
H            0.66725680397585       -0.04816965565593        0.73355041021725
H            2.83194098643504       -0.04789453223592       -1.31420277619838
H            2.80125142039664       -1.05391229286022        0.15596639611721
H            2.50717838550168        1.00401269585059        1.52253075684822
H            2.72968537639141        2.00267859938554        0.07257081693777

          :  Hamiltonian                  GFN2-xTB          :
         :: total energy             -51.846653746388 Eh    ::
         :: gradient norm              0.000378970319 Eh/a0 ::
         :: HOMO-LUMO gap              2.960371464919 eV    ::
         :: SCC energy               -52.254585145961 Eh    ::
         :: -> dispersion             -0.018668265031 Eh    ::
         :: -> Gsolv                  -0.082256372518 Eh    ::
         :: repulsion energy           0.407887944854 Eh    ::

    * Orbital Energies and Occupations

         #    Occupation            Energy/Eh            Energy/eV
      -------------------------------------------------------------
         1        2.0000           -1.0074828             -27.4150
       ...           ...                  ...                  ...
        31        2.0000           -0.5271955             -14.3457
        32        2.0000           -0.5199650             -14.1490
        33        2.0000           -0.5063251             -13.7778
        34        2.0000           -0.5006275             -13.6228
        35        2.0000           -0.4938204             -13.4375
        36        2.0000           -0.4898243             -13.3288
        37        2.0000           -0.4833637             -13.1530
        38        2.0000           -0.4534364             -12.3386
        39        2.0000           -0.4510012             -12.2724
        40        2.0000           -0.4445910             -12.0979
        41        2.0000           -0.4027578             -10.9596
        42        2.0000           -0.3999713             -10.8838
        43        2.0000           -0.3997069             -10.8766 (HOMO)
        44                         -0.2909152              -7.9162 (LUMO)
        45                         -0.2887719              -7.8579
        46                         -0.1637421              -4.4556
        47                         -0.0492057              -1.3390
        48                         -0.0321492              -0.8748
        49                         -0.0125594              -0.3418
        50                          0.0157492               0.4286
        51                          0.0480680               1.3080
        52                          0.0745254               2.0279
        53                          0.0791441               2.1536
        54                          0.0861967               2.3455
       ...                                ...                  ...
        72                          0.5824246              15.8486
      -------------------------------------------------------------
                  HL-Gap            0.1087916 Eh            2.9604 eV

     #   Z          covCN         q      C6AA      α(0)
     1   7 N        3.485    -0.173    24.736     7.387
     2   6 C        3.732    -0.025    21.109     6.558
     3   6 C        3.809    -0.084    22.089     6.690
     4   6 C        2.963     0.006    27.896     8.663
     5   6 C        2.789     0.156    24.602     8.125
     6   9 F        0.787    -0.180    11.026     3.922
     7   6 C        2.774     0.147    24.783     8.153
     8   9 F        0.786    -0.187    11.101     3.936
     9   6 C        2.779     0.148    24.761     8.150
    10   9 F        0.786    -0.188    11.112     3.938
    11   6 C        2.775     0.147    24.795     8.155
    12   9 F        0.786    -0.191    11.141     3.943
    13   6 C        2.788     0.157    24.584     8.122
    14   9 F        0.787    -0.182    11.052     3.927
    15  17 Cl       0.054    -0.942   124.654    16.992
    16   1 H        0.859     0.313     0.676     1.288
    17   1 H        0.859     0.306     0.696     1.306
    18   1 H        0.910     0.304     0.698     1.307
    19   1 H        0.924     0.121     1.603     1.980
    20   1 H        0.925     0.111     1.684     2.029
    21   1 H        0.924     0.121     1.603     1.980
    22   1 H        0.925     0.112     1.680     2.027

Wiberg/Mayer (AO) data.
largest (>0.10) Wiberg bond orders for each atom

     #   Z sym  total        # sym  WBO       # sym  WBO       # sym  WBO
 ---------------------------------------------------------------------------
     1   7 N    3.637 --     2 C    0.982    17 H    0.892    16 H    0.888
                            18 H    0.823
     2   6 C    3.932 --     3 C    0.983     1 N    0.982    20 H    0.966
                            19 H    0.964
     3   6 C    3.969 --     4 C    1.020     2 C    0.983    22 H    0.963
                            21 H    0.938
     4   6 C    3.975 --     5 C    1.357    13 C    1.348     3 C    1.020
     5   6 C    3.898 --     4 C    1.357     7 C    1.344     6 F    0.990
     6   9 F    1.131 --     5 C    0.990
     7   6 C    3.894 --     9 C    1.345     5 C    1.344     8 F    0.985
     8   9 F    1.124 --     7 C    0.985
     9   6 C    3.893 --     7 C    1.345    11 C    1.340    10 F    0.985
    10   9 F    1.124 --     9 C    0.985
    11   6 C    3.892 --    13 C    1.351     9 C    1.340    12 F    0.983
    12   9 F    1.120 --    11 C    0.983
    13   6 C    3.895 --    11 C    1.351     4 C    1.348    14 F    0.990
    14   9 F    1.134 --    13 C    0.990
    15  17 Cl   0.113
    16   1 H    0.902 --     1 N    0.888
    17   1 H    0.906 --     1 N    0.892
    18   1 H    0.908 --     1 N    0.823
    19   1 H    0.985 --     2 C    0.964
    20   1 H    0.988 --     2 C    0.966
    21   1 H    0.984 --     3 C    0.938
    22   1 H    0.987 --     3 C    0.963
 ---------------------------------------------------------------------------

molecular dipole:
                 x           y           z       tot (Debye)
 q only:       -0.348      -0.411      -5.467
   full:       -0.507      -0.407      -4.639      11.907

           -------------------------------------------------
          | TOTAL ENERGY              -51.846653746388 Eh   |
          | GRADIENT NORM               0.000378970319 Eh/α |
          | HOMO-LUMO GAP               2.960371464919 eV   |
           -------------------------------------------------

 * finished run on 2023/01/24 at 15:27:01.839
