   * xtb version 6.5.1 (fef0646) compiled by 'conda@b96dff2e9fd6' on 2023-01-04
          program call               : xtb init.xyz --opt -c 0 -u 0 -P 16 --input xtb.inp

   ID    Z sym.   atoms
    1    7 N      1
    2    6 C      2-5, 7, 9, 11, 13
    3    9 F      6, 8, 10, 12, 14
    4   17 Cl     15
    5    1 H      16-22

          :  Hamiltonian                  GFN2-xTB          :
 * total energy  :   -51.7681736 Eh     change       -0.1718874E-09 Eh
 * total energy  :   -51.7682294 Eh     change       -0.5578806E-04 Eh
 * total energy  :   -51.7725684 Eh     change       -0.4338965E-02 Eh
 * total energy  :   -51.7731050 Eh     change       -0.5366064E-03 Eh
 * total energy  :   -51.7769354 Eh     change       -0.3830377E-02 Eh
 * total energy  :   -51.7783580 Eh     change       -0.1422613E-02 Eh
 * total energy  :   -51.7813821 Eh     change       -0.3024078E-02 Eh
 * total energy  :   -51.7885506 Eh     change       -0.7168530E-02 Eh
 * total energy  :   -51.7887119 Eh     change       -0.1613180E-03 Eh
 * total energy  :   -51.7959348 Eh     change       -0.7222878E-02 Eh
 * total energy  :   -51.8013804 Eh     change       -0.2591896E-04 Eh
 * total energy  :   -51.8014026 Eh     change       -0.2224677E-04 Eh
 * total energy  :   -51.8014331 Eh     change       -0.3047025E-04 Eh
 * total energy  :   -51.8014599 Eh     change       -0.2679078E-04 Eh
 * total energy  :   -51.8014783 Eh     change       -0.1842940E-04 Eh
 * total energy  :   -51.8014889 Eh     change       -0.1056205E-04 Eh
 * total energy  :   -51.8014959 Eh     change       -0.7024106E-05 Eh
 * total energy  :   -51.8015018 Eh     change       -0.5889143E-05 Eh
 * total energy  :   -51.8015048 Eh     change       -0.2993532E-05 Eh
   *** GEOMETRY OPTIMIZATION CONVERGED AFTER 34 ITERATIONS ***

 final structure:
================
22
 xtb: 6.5.1 (fef0646)
N            1.24349615922574       -0.41122754275346        0.13795590971867
C            2.68783178812134       -0.25548226422837        0.01701308563021
C            3.12313736341028        1.00592137062583        0.77873701014589
C            4.60913730086424        1.19080817212791        0.72114404255489
C            5.23183003663198        1.67461447303265       -0.42629797123686
F            4.48331441517885        1.99024858181553       -1.48651929906930
C            6.61048817811693        1.83965914908163       -0.50344629634400
F            7.17373779971901        2.30583242059675       -1.61866025901092
C            7.40540670225077        1.51170665896560        0.59145516209446
F            8.72764520331263        1.66331818992920        0.52958786650113
C            6.80999382134502        1.02075560675768        1.74885923963033
F            7.56202923266558        0.69852156283843        2.80239555820869
C            5.42836847383389        0.86411685668188        1.79672684591813
F            4.87452409688087        0.38301455325983        2.91632622101909
Cl          -0.08148388084877        2.12420924203437       -0.63514594261025
H            0.90463726531528       -1.16527783420699       -0.44821380155045
H            0.51298318439211        0.95257657830198       -0.30125976284686
H            0.97791308272246       -0.60015985101490        1.09906331816640
H            2.92375555241639       -0.14014792675292       -1.04270572098088
H            3.23995198178644       -1.12444081613900        0.40402002147370
H            2.80729143776323        0.92360228511159        1.81880591070808
H            2.62419080489610        1.86386053393486        0.32717886187818

          :  Hamiltonian                  GFN2-xTB          :
         :: total energy             -51.801504777503 Eh    ::
         :: gradient norm              0.000358471612 Eh/a0 ::
         :: HOMO-LUMO gap              2.937798502756 eV    ::
         :: SCC energy               -52.203452777018 Eh    ::
         :: -> dispersion             -0.019204145358 Eh    ::
         :: repulsion energy           0.401917061432 Eh    ::

    * Orbital Energies and Occupations

         #    Occupation            Energy/Eh            Energy/eV
      -------------------------------------------------------------
         1        2.0000           -1.0306899             -28.0465
       ...           ...                  ...                  ...
        31        2.0000           -0.5338661             -14.5272
        32        2.0000           -0.5246231             -14.2757
        33        2.0000           -0.5165688             -14.0566
        34        2.0000           -0.5062786             -13.7765
        35        2.0000           -0.4994193             -13.5899
        36        2.0000           -0.4984069             -13.5623
        37        2.0000           -0.4954814             -13.4827
        38        2.0000           -0.4792374             -13.0407
        39        2.0000           -0.4574598             -12.4481
        40        2.0000           -0.4563325             -12.4174
        41        2.0000           -0.4163010             -11.3281
        42        2.0000           -0.4078788             -11.0989
        43        2.0000           -0.4075208             -11.0892 (HOMO)
        44                         -0.2995587              -8.1514 (LUMO)
        45                         -0.2964796              -8.0676
        46                         -0.1722487              -4.6871
        47                         -0.0709814              -1.9315
        48                         -0.0438374              -1.1929
        49                         -0.0235073              -0.6397
        50                          0.0030209               0.0822
        51                          0.0168280               0.4579
        52                          0.0491666               1.3379
        53                          0.0517146               1.4072
        54                          0.0522886               1.4228
       ...                                ...                  ...
        72                          0.5772210              15.7070
      -------------------------------------------------------------
                  HL-Gap            0.1079621 Eh            2.9378 eV

     #   Z          covCN         q      C6AA      α(0)
     1   7 N        2.661    -0.310    27.976     7.856
     2   6 C        3.732     0.011    20.484     6.460
     3   6 C        3.809    -0.073    21.889     6.660
     4   6 C        2.965    -0.016    28.416     8.744
     5   6 C        2.787     0.143    24.876     8.170
     6   9 F        0.788    -0.165    10.878     3.896
     7   6 C        2.774     0.136    25.010     8.191
     8   9 F        0.787    -0.155    10.783     3.879
     9   6 C        2.779     0.138    24.976     8.186
    10   9 F        0.787    -0.153    10.762     3.875
    11   6 C        2.774     0.136    25.018     8.192
    12   9 F        0.787    -0.156    10.794     3.881
    13   6 C        2.787     0.142    24.895     8.173
    14   9 F        0.787    -0.172    10.949     3.909
    15  17 Cl       0.839    -0.464   114.363    16.360
    16   1 H        0.860     0.171     1.266     1.763
    17   1 H        0.869     0.336     0.615     1.228
    18   1 H        0.860     0.171     1.269     1.764
    19   1 H        0.924     0.066     2.130     2.282
    20   1 H        0.923     0.032     2.555     2.500
    21   1 H        0.925     0.079     1.984     2.203
    22   1 H        0.924     0.103     1.756     2.073

Wiberg/Mayer (AO) data.
largest (>0.10) Wiberg bond orders for each atom

     #   Z sym  total        # sym  WBO       # sym  WBO       # sym  WBO
 ---------------------------------------------------------------------------
     1   7 N    3.206 --     2 C    1.015    18 H    0.957    16 H    0.956
                            17 H    0.174
     2   6 C    3.977 --     1 N    1.015     3 C    0.980    19 H    0.974
                            20 H    0.972
     3   6 C    3.982 --     4 C    1.018     2 C    0.980    21 H    0.968
                            22 H    0.954
     4   6 C    3.982 --    13 C    1.361     5 C    1.353     3 C    1.018
     5   6 C    3.903 --     4 C    1.353     7 C    1.344     6 F    1.001
     6   9 F    1.148 --     5 C    1.001
     7   6 C    3.906 --     5 C    1.344     9 C    1.333     8 F    1.007
     8   9 F    1.155 --     7 C    1.007
     9   6 C    3.906 --    11 C    1.338     7 C    1.333    10 F    1.009
    10   9 F    1.159 --     9 C    1.009
    11   6 C    3.905 --    13 C    1.339     9 C    1.338    12 F    1.006
    12   9 F    1.154 --    11 C    1.006
    13   6 C    3.901 --     4 C    1.361    11 C    1.339    14 F    0.995
    14   9 F    1.138 --    13 C    0.995
    15  17 Cl   0.789 --    17 H    0.709
    16   1 H    0.970 --     1 N    0.956
    17   1 H    0.887 --    15 Cl   0.709     1 N    0.174
    18   1 H    0.971 --     1 N    0.957
    19   1 H    0.996 --     2 C    0.974
    20   1 H    0.999 --     2 C    0.972
    21   1 H    0.993 --     3 C    0.968
    22   1 H    0.989 --     3 C    0.954
 ---------------------------------------------------------------------------

molecular dipole:
                 x           y           z       tot (Debye)
 q only:       -0.339      -1.645       0.446
   full:       -0.469      -1.598       0.417       4.363

           -------------------------------------------------
          | TOTAL ENERGY              -51.801504777503 Eh   |
          | GRADIENT NORM               0.000358471612 Eh/α |
          | HOMO-LUMO GAP               2.937798502756 eV   |
           -------------------------------------------------

 * finished run on 2023/01/23 at 19:06:08.846
