   * xtb version 6.5.1 (fef0646) compiled by 'conda@b96dff2e9fd6' on 2023-01-04
          program call               : xtb init.xyz --opt -c 1 -u 0 -P 16 --alpb water

   ID    Z sym.   atoms
    1    7 N      1
    2    6 C      2-7, 9, 10
    3    9 F      8
    4    1 H      11-21

      * Solvation model:               ALPB
        Solvent                        water
        Solvent mass                       1.8000E+01 g/mol
          :  Hamiltonian                  GFN2-xTB          :
 * total energy  :   -30.0609199 Eh     change       -0.2075602E-09 Eh
 * total energy  :   -30.0630467 Eh     change       -0.2126784E-02 Eh
 * total energy  :   -30.0633805 Eh     change       -0.3337652E-03 Eh
 * total energy  :   -30.0634391 Eh     change       -0.5865014E-04 Eh
 * total energy  :   -30.0634704 Eh     change       -0.3126873E-04 Eh
 * total energy  :   -30.0635017 Eh     change       -0.3134041E-04 Eh
 * total energy  :   -30.0635327 Eh     change       -0.3095438E-04 Eh
 * total energy  :   -30.0635818 Eh     change       -0.4911122E-04 Eh
 * total energy  :   -30.0636386 Eh     change       -0.5677979E-04 Eh
 * total energy  :   -30.0637114 Eh     change       -0.7278655E-04 Eh
 * total energy  :   -30.0637606 Eh     change       -0.4921383E-04 Eh
 * total energy  :   -30.0638132 Eh     change       -0.5263012E-04 Eh
 * total energy  :   -30.0638408 Eh     change       -0.2753344E-04 Eh
 * total energy  :   -30.0638644 Eh     change       -0.2368910E-04 Eh
 * total energy  :   -30.0638800 Eh     change       -0.1559664E-04 Eh
 * total energy  :   -30.0638931 Eh     change       -0.1309152E-04 Eh
 * total energy  :   -30.0639125 Eh     change       -0.1937697E-04 Eh
 * total energy  :   -30.0639231 Eh     change       -0.1054693E-04 Eh
 * total energy  :   -30.0639267 Eh     change       -0.3626346E-05 Eh
   *** GEOMETRY OPTIMIZATION CONVERGED AFTER 19 ITERATIONS ***

 final structure:
================
21
 xtb: 6.5.1 (fef0646)
N            2.85790466230703        3.37078541682432        1.88787322932868
C            2.55237353484886        1.93967305842733        2.13021137246147
C            3.10185768189803        1.08197155793489        0.99156741069509
C            4.60829899766117        1.08185711244167        0.95963527059473
C            5.32429358711424        0.39088008361360        1.93261223588496
C            6.70695066746432        0.37661133929594        1.92073950764087
C            7.36344908166397        1.06424597413440        0.91716873387707
F            8.73071741411191        1.04747408048235        0.89152280628161
C            6.68696705519994        1.76294762262628       -0.06240408196047
C            5.30214304009777        1.76889339044246       -0.02970074695979
H            2.52445922064078        3.95337408780572        2.66419959893711
H            2.40910470694357        3.68869561265668        1.02044455550240
H            3.87258275116174        3.49661265714743        1.78992335788933
H            1.47299281089095        1.81078504620031        2.19741022225790
H            3.00400186042078        1.63446108691601        3.07363236427514
H            2.71420876909094        1.43317520240490        0.03593075582320
H            2.75326462266830        0.05943428278422        1.13405297773189
H            4.80247790067917       -0.15741544421320        2.70131933916258
H            7.27641026065771       -0.16121937931918        2.66153801427411
H            7.23955212671558        2.28021049385357       -0.83004322454945
H            4.76910924776342        2.29896671754036       -0.80407369914837

          :  Hamiltonian                  GFN2-xTB          :
         :: total energy             -30.063926683425 Eh    ::
         :: gradient norm              0.000622141610 Eh/a0 ::
         :: HOMO-LUMO gap              4.583848233064 eV    ::
         :: SCC energy               -30.508831558163 Eh    ::
         :: -> dispersion             -0.015073163851 Eh    ::
         :: -> Gsolv                  -0.129561835350 Eh    ::
         :: repulsion energy           0.444813759100 Eh    ::

    * Orbital Energies and Occupations

         #    Occupation            Energy/Eh            Energy/eV
      -------------------------------------------------------------
         1        2.0000           -0.8210098             -22.3408
       ...           ...                  ...                  ...
        15        2.0000           -0.5350813             -14.5603
        16        2.0000           -0.5203492             -14.1594
        17        2.0000           -0.5006880             -13.6244
        18        2.0000           -0.4997018             -13.5976
        19        2.0000           -0.4929770             -13.4146
        20        2.0000           -0.4898033             -13.3282
        21        2.0000           -0.4801748             -13.0662
        22        2.0000           -0.4719510             -12.8424
        23        2.0000           -0.4592646             -12.4972
        24        2.0000           -0.4459699             -12.1355
        25        2.0000           -0.4321986             -11.7607
        26        2.0000           -0.4215599             -11.4712
        27        2.0000           -0.4092540             -11.1364 (HOMO)
        28                         -0.2408007              -6.5525 (LUMO)
        29                         -0.2373805              -6.4595
        30                         -0.1104052              -3.0043
        31                         -0.0468117              -1.2738
        32                          0.0324413               0.8828
        33                          0.0590937               1.6080
        34                          0.0746349               2.0309
        35                          0.0988393               2.6896
        36                          0.1136595               3.0928
        37                          0.1347895               3.6678
        38                          0.1412202               3.8428
       ...                                ...                  ...
        51                          0.6447716              17.5451
      -------------------------------------------------------------
                  HL-Gap            0.1684533 Eh            4.5838 eV

     #   Z          covCN         q      C6AA      α(0)
     1   7 N        3.485    -0.156    24.362     7.331
     2   6 C        3.732    -0.039    21.359     6.597
     3   6 C        3.809    -0.098    22.365     6.732
     4   6 C        2.968     0.013    27.712     8.635
     5   6 C        2.930    -0.043    29.072     8.842
     6   6 C        2.914    -0.052    29.294     8.875
     7   6 C        2.789     0.165    24.424     8.095
     8   9 F        0.786    -0.294    12.256     4.135
     9   6 C        2.914    -0.054    29.339     8.882
    10   6 C        2.929    -0.049    29.212     8.864
    11   1 H        0.859     0.318     0.663     1.276
    12   1 H        0.859     0.311     0.680     1.292
    13   1 H        0.859     0.295     0.728     1.336
    14   1 H        0.925     0.121     1.602     1.979
    15   1 H        0.925     0.113     1.675     2.024
    16   1 H        0.925     0.089     1.885     2.147
    17   1 H        0.925     0.092     1.861     2.133
    18   1 H        0.926     0.073     2.049     2.238
    19   1 H        0.926     0.055     2.255     2.349
    20   1 H        0.926     0.059     2.215     2.327
    21   1 H        0.926     0.080     1.982     2.202

Wiberg/Mayer (AO) data.
largest (>0.10) Wiberg bond orders for each atom

     #   Z sym  total        # sym  WBO       # sym  WBO       # sym  WBO
 ---------------------------------------------------------------------------
     1   7 N    3.656 --     2 C    0.966    13 H    0.895    12 H    0.888
                            11 H    0.886
     2   6 C    3.925 --     3 C    0.999     1 N    0.966    15 H    0.964
                            14 H    0.963
     3   6 C    3.986 --     4 C    1.011     2 C    0.999    16 H    0.966
                            17 H    0.955
     4   6 C    3.987 --    10 C    1.416     5 C    1.405     3 C    1.011
     5   6 C    3.986 --     6 C    1.447     4 C    1.405    18 H    0.965
                             9 C    0.112
     6   6 C    3.988 --     5 C    1.447     7 C    1.398    19 H    0.967
                            10 C    0.110
     7   6 C    3.852 --     9 C    1.408     6 C    1.398     8 F    0.905
     8   9 F    1.020 --     7 C    0.905
     9   6 C    3.986 --    10 C    1.433     7 C    1.408    20 H    0.967
                             5 C    0.112
    10   6 C    3.984 --     9 C    1.433     4 C    1.416    21 H    0.963
                             6 C    0.110
    11   1 H    0.899 --     1 N    0.886
    12   1 H    0.903 --     1 N    0.888
    13   1 H    0.913 --     1 N    0.895
    14   1 H    0.985 --     2 C    0.963
    15   1 H    0.987 --     2 C    0.964
    16   1 H    0.992 --     3 C    0.966
    17   1 H    0.991 --     3 C    0.955
    18   1 H    0.995 --     5 C    0.965
    19   1 H    0.997 --     6 C    0.967
    20   1 H    0.996 --     9 C    0.967
    21   1 H    0.994 --    10 C    0.963
 ---------------------------------------------------------------------------

molecular dipole:
                 x           y           z       tot (Debye)
 q only:        3.645       6.100       3.580
   full:        4.020       6.124       3.538      20.678

           -------------------------------------------------
          | TOTAL ENERGY              -30.063926683425 Eh   |
          | GRADIENT NORM               0.000622141610 Eh/α |
          | HOMO-LUMO GAP               4.583848233064 eV   |
           -------------------------------------------------

 * finished run on 2023/01/24 at 14:57:40.996
