   * xtb version 6.5.1 (fef0646) compiled by 'conda@b96dff2e9fd6' on 2023-01-04
          program call               : xtb init.xyz --opt -c 1 -u 0 -P 16

   ID    Z sym.   atoms
    1    7 N      1
    2    6 C      2-5
    3    1 H      6-13

          :  Hamiltonian                  GFN2-xTB          :
 * total energy  :   -15.0254476 Eh     change        0.2035705E-11 Eh
 * total energy  :   -15.0481537 Eh     change       -0.2270608E-01 Eh
 * total energy  :   -15.0494046 Eh     change       -0.1250851E-02 Eh
 * total energy  :   -15.0495738 Eh     change       -0.1692510E-03 Eh
 * total energy  :   -15.0497139 Eh     change       -0.1400519E-03 Eh
 * total energy  :   -15.0499226 Eh     change       -0.2087863E-03 Eh
 * total energy  :   -15.0501304 Eh     change       -0.2077389E-03 Eh
 * total energy  :   -15.0502768 Eh     change       -0.1464191E-03 Eh
 * total energy  :   -15.0504324 Eh     change       -0.1555512E-03 Eh
 * total energy  :   -15.0505005 Eh     change       -0.6817314E-04 Eh
 * total energy  :   -15.0505235 Eh     change       -0.2300120E-04 Eh
 * total energy  :   -15.0505323 Eh     change       -0.8722927E-05 Eh
 * total energy  :   -15.0505350 Eh     change       -0.2750493E-05 Eh
   *** GEOMETRY OPTIMIZATION CONVERGED AFTER 13 ITERATIONS ***

 final structure:
================
13
 xtb: 6.5.1 (fef0646)
N            0.91480067792504       -0.06461551601262        0.04043485787032
C            2.39709970350536        0.04292867153954       -0.10421769581808
C            2.93838423665019        0.75920075209271        1.13489439303731
C            2.37989883273594        0.13935294227794        2.32483858264697
C            1.82110842714444       -0.40740568423861        3.23321551869182
H            0.50133431975400       -0.74734316141582       -0.60405329997183
H            0.46231898641300        0.84674895076321       -0.10210933701660
H            0.76076926244510       -0.35279642016659        1.03326104539892
H            2.64794345508881        0.58036638508320       -1.01819957999570
H            2.80700254059462       -0.96700685677780       -0.15819460387752
H            2.67818001635513        1.82053753937539        1.12180725259048
H            4.02625359903608        0.68391847059322        1.16018533821072
H            1.41245594235180       -0.85972607311396        4.08866752823349

          :  Hamiltonian                  GFN2-xTB          :
         :: total energy             -15.050535003563 Eh    ::
         :: gradient norm              0.000597119805 Eh/a0 ::
         :: HOMO-LUMO gap              6.742082207698 eV    ::
         :: SCC energy               -15.343508610436 Eh    ::
         :: -> dispersion             -0.005670243607 Eh    ::
         :: repulsion energy           0.292964090808 Eh    ::

    * Orbital Energies and Occupations

         #    Occupation            Energy/Eh            Energy/eV
      -------------------------------------------------------------
         1        2.0000           -0.8976166             -24.4254
         2        2.0000           -0.8457884             -23.0151
         3        2.0000           -0.8112823             -22.0761
         4        2.0000           -0.8017608             -21.8170
         5        2.0000           -0.7815595             -21.2673
         6        2.0000           -0.7666414             -20.8614
         7        2.0000           -0.7404310             -20.1482
         8        2.0000           -0.6993292             -19.0297
         9        2.0000           -0.6744310             -18.3522
        10        2.0000           -0.6660817             -18.1250
        11        2.0000           -0.6445313             -17.5386
        12        2.0000           -0.6246659             -16.9980
        13        2.0000           -0.5775694             -15.7165
        14        2.0000           -0.5684631             -15.4687 (HOMO)
        15                         -0.3206962              -8.7266 (LUMO)
        16                         -0.3086698              -8.3993
        17                         -0.2590742              -7.0498
        18                         -0.1630987              -4.4381
        19                         -0.1072094              -2.9173
        20                         -0.0938146              -2.5528
        21                         -0.0849297              -2.3111
        22                         -0.0513792              -1.3981
        23                         -0.0053612              -0.1459
        24                          0.0108764               0.2960
        25                          0.0587259               1.5980
       ...                                ...                  ...
        28                          1.2550927              34.1528
      -------------------------------------------------------------
                  HL-Gap            0.2477670 Eh            6.7421 eV

     #   Z          covCN         q      C6AA      α(0)
     1   7 N        3.483    -0.135    23.921     7.264
     2   6 C        3.739    -0.028    21.155     6.563
     3   6 C        3.806    -0.067    21.786     6.645
     4   6 C        1.971    -0.033    31.952     9.128
     5   6 C        1.909    -0.093    33.663     9.370
     6   1 H        0.859     0.267     0.819     1.418
     7   1 H        0.859     0.269     0.814     1.414
     8   1 H        0.858     0.281     0.774     1.379
     9   1 H        0.925     0.108     1.714     2.047
    10   1 H        0.924     0.110     1.697     2.037
    11   1 H        0.924     0.090     1.878     2.143
    12   1 H        0.924     0.114     1.660     2.015
    13   1 H        0.928     0.118     1.631     1.997

Wiberg/Mayer (AO) data.
largest (>0.10) Wiberg bond orders for each atom

     #   Z sym  total        # sym  WBO       # sym  WBO       # sym  WBO
 ---------------------------------------------------------------------------
     1   7 N    3.670 --     2 C    0.934     6 H    0.915     7 H    0.913
                             8 H    0.867
     2   6 C    3.898 --     3 C    0.992     9 H    0.968    10 H    0.968
                             1 N    0.934
     3   6 C    3.981 --     4 C    1.047     2 C    0.992    11 H    0.951
                            12 H    0.941
     4   6 C    3.978 --     5 C    2.874     3 C    1.047
     5   6 C    3.966 --     4 C    2.874    13 H    0.962
     6   1 H    0.929 --     1 N    0.915
     7   1 H    0.928 --     1 N    0.913
     8   1 H    0.921 --     1 N    0.867
     9   1 H    0.988 --     2 C    0.968
    10   1 H    0.988 --     2 C    0.968
    11   1 H    0.992 --     3 C    0.951
    12   1 H    0.987 --     3 C    0.941
    13   1 H    0.986 --     5 C    0.962
 ---------------------------------------------------------------------------

molecular dipole:
                 x           y           z       tot (Debye)
 q only:        2.451       0.029       0.439
   full:        2.250       0.006       0.397       5.808

           -------------------------------------------------
          | TOTAL ENERGY              -15.050535003563 Eh   |
          | GRADIENT NORM               0.000597119805 Eh/α |
          | HOMO-LUMO GAP               6.742082207698 eV   |
           -------------------------------------------------

 * finished run on 2023/01/23 at 13:48:17.262
