   * xtb version 6.5.1 (fef0646) compiled by 'conda@b96dff2e9fd6' on 2023-01-04
          program call               : xtb init.xyz --opt -c 1 -u 0 -P 16 --alpb water

   ID    Z sym.   atoms
    1    7 N      1
    2    6 C      2-9
    3    1 H      10-29

      * Solvation model:               ALPB
        Solvent                        water
        Solvent mass                       1.8000E+01 g/mol
          :  Hamiltonian                  GFN2-xTB          :
 * total energy  :   -29.9360818 Eh     change       -0.7768719E-10 Eh
 * total energy  :   -29.9375095 Eh     change       -0.1427706E-02 Eh
 * total energy  :   -29.9376244 Eh     change       -0.1148107E-03 Eh
 * total energy  :   -29.9376402 Eh     change       -0.1579933E-04 Eh
 * total energy  :   -29.9376424 Eh     change       -0.2226164E-05 Eh
   *** GEOMETRY OPTIMIZATION CONVERGED AFTER 5 ITERATIONS ***

 final structure:
================
29
 xtb: 6.5.1 (fef0646)
N            0.97711009099084       -0.05561144085812       -0.10751464029992
C            2.46067430183856       -0.05948244441487       -0.09888251311964
C            2.98959250059739        0.15441751990101        1.31492113158178
C            4.51782613923919        0.15787815496377        1.33485536136556
C            5.05837093297589        0.37039401622766        2.74774327066263
C            6.58487448980505        0.37740826248513        2.78200733761193
C            7.12172121586272        0.59000319692314        4.19563838047677
C            8.64813859538267        0.59791056991613        4.23732732880755
C            9.17569036977880        0.81039214291994        5.65164096028264
H            0.61708129368802       -0.20320700434425       -1.05713450848988
H            0.62476213626397        0.84270172431088        0.24402912575438
H            0.61988969233894       -0.80138825427578        0.50129752132024
H            2.82491770799944        0.73391303006109       -0.75123760264108
H            2.81862131331123       -1.01405095411456       -0.48405694928807
H            2.63786550838466       -0.64017423344677        1.97419022013767
H            2.63749104203643        1.10805948115818        1.71020581614773
H            4.89614513485623        0.95178460626924        0.68822489199820
H            4.89679981914499       -0.79073540131214        0.95011437642528
H            4.69427069822151       -0.42318239552051        3.40411725848550
H            4.69216410096579        1.32068126684476        3.14269010475444
H            6.96254185347390        1.17185542513744        2.13380928332998
H            6.96470114846548       -0.57127129234169        2.39514576144196
H            6.75184261669181       -0.20383511030157        4.84919416894988
H            6.74995753329011        1.53984681243968        4.58767605776509
H            9.02468530621298        1.39251549299514        3.58886603929000
H            9.02655553013904       -0.35108310848090        3.85017404069757
H            8.82870117246807        1.76129285204345        6.05043102687374
H           10.26319293048357        0.81292921397386        5.65914631039340
H            8.83096482509267        0.01712787084068        6.31160043928467

          :  Hamiltonian                  GFN2-xTB          :
         :: total energy             -29.937642384184 Eh    ::
         :: gradient norm              0.000481367915 Eh/a0 ::
         :: HOMO-LUMO gap              9.925448510939 eV    ::
         :: SCC energy               -30.376292652846 Eh    ::
         :: -> dispersion             -0.015947160370 Eh    ::
         :: -> Gsolv                  -0.118144165174 Eh    ::
         :: repulsion energy           0.438791864440 Eh    ::

    * Orbital Energies and Occupations

         #    Occupation            Energy/Eh            Energy/eV
      -------------------------------------------------------------
         1        2.0000           -0.6923843             -18.8407
       ...           ...                  ...                  ...
        16        2.0000           -0.4942181             -13.4484
        17        2.0000           -0.4935479             -13.4301
        18        2.0000           -0.4755153             -12.9394
        19        2.0000           -0.4707289             -12.8092
        20        2.0000           -0.4640289             -12.6269
        21        2.0000           -0.4539475             -12.3525
        22        2.0000           -0.4491038             -12.2207
        23        2.0000           -0.4388842             -11.9426
        24        2.0000           -0.4322599             -11.7624
        25        2.0000           -0.4282393             -11.6530
        26        2.0000           -0.4211284             -11.4595
        27        2.0000           -0.4201209             -11.4321
        28        2.0000           -0.4164921             -11.3333 (HOMO)
        29                         -0.0517386              -1.4079 (LUMO)
        30                          0.0387380               1.0541
        31                          0.0659331               1.7941
        32                          0.0918127               2.4983
        33                          0.0962133               2.6181
        34                          0.1100607               2.9949
        35                          0.1174514               3.1960
        36                          0.1212727               3.3000
        37                          0.1342497               3.6531
        38                          0.1446592               3.9364
        39                          0.1505943               4.0979
       ...                                ...                  ...
        56                          0.3226466               8.7797
      -------------------------------------------------------------
                  HL-Gap            0.3647535 Eh            9.9254 eV

     #   Z          covCN         q      C6AA      α(0)
     1   7 N        3.485    -0.162    24.492     7.350
     2   6 C        3.732    -0.038    21.344     6.594
     3   6 C        3.803    -0.086    22.137     6.698
     4   6 C        3.804    -0.071    21.850     6.655
     5   6 C        3.803    -0.067    21.783     6.645
     6   6 C        3.803    -0.065    21.737     6.638
     7   6 C        3.803    -0.064    21.725     6.636
     8   6 C        3.801    -0.058    21.615     6.619
     9   6 C        3.752    -0.110    22.659     6.788
    10   1 H        0.859     0.316     0.667     1.280
    11   1 H        0.859     0.309     0.688     1.299
    12   1 H        0.859     0.309     0.688     1.300
    13   1 H        0.925     0.107     1.723     2.053
    14   1 H        0.925     0.107     1.722     2.052
    15   1 H        0.924     0.066     2.127     2.281
    16   1 H        0.924     0.066     2.125     2.280
    17   1 H        0.924     0.043     2.410     2.428
    18   1 H        0.924     0.043     2.410     2.428
    19   1 H        0.924     0.037     2.495     2.470
    20   1 H        0.924     0.037     2.494     2.470
    21   1 H        0.924     0.030     2.581     2.512
    22   1 H        0.924     0.030     2.581     2.512
    23   1 H        0.924     0.031     2.574     2.509
    24   1 H        0.924     0.031     2.573     2.509
    25   1 H        0.924     0.029     2.605     2.524
    26   1 H        0.924     0.029     2.604     2.524
    27   1 H        0.925     0.035     2.522     2.483
    28   1 H        0.925     0.031     2.568     2.506
    29   1 H        0.925     0.035     2.522     2.484

Wiberg/Mayer (AO) data.
largest (>0.10) Wiberg bond orders for each atom

     #   Z sym  total        # sym  WBO       # sym  WBO       # sym  WBO
 ---------------------------------------------------------------------------
     1   7 N    3.653 --     2 C    0.966    12 H    0.890    11 H    0.890
                            10 H    0.887
     2   6 C    3.927 --     3 C    1.011    14 H    0.966    13 H    0.966
                             1 N    0.966
     3   6 C    3.990 --     2 C    1.011     4 C    1.004    15 H    0.973
                            16 H    0.973
     4   6 C    3.995 --     5 C    1.007     3 C    1.004    18 H    0.977
                            17 H    0.977
     5   6 C    3.996 --     4 C    1.007     6 C    1.007    19 H    0.977
                            20 H    0.977
     6   6 C    3.996 --     7 C    1.007     5 C    1.007    22 H    0.977
                            21 H    0.977
     7   6 C    3.997 --     8 C    1.008     6 C    1.007    23 H    0.977
                            24 H    0.977
     8   6 C    3.997 --     9 C    1.019     7 C    1.008    25 H    0.979
                            26 H    0.979
     9   6 C    3.996 --     8 C    1.019    29 H    0.988    27 H    0.988
                            28 H    0.988
    10   1 H    0.900 --     1 N    0.887
    11   1 H    0.905 --     1 N    0.890
    12   1 H    0.905 --     1 N    0.890
    13   1 H    0.989 --     2 C    0.966
    14   1 H    0.989 --     2 C    0.966
    15   1 H    0.996 --     3 C    0.973
    16   1 H    0.996 --     3 C    0.973
    17   1 H    0.998 --     4 C    0.977
    18   1 H    0.998 --     4 C    0.977
    19   1 H    0.999 --     5 C    0.977
    20   1 H    0.999 --     5 C    0.977
    21   1 H    0.999 --     6 C    0.977
    22   1 H    0.999 --     6 C    0.977
    23   1 H    0.999 --     7 C    0.977
    24   1 H    0.999 --     7 C    0.977
    25   1 H    0.999 --     8 C    0.979
    26   1 H    0.999 --     8 C    0.979
    27   1 H    0.999 --     9 C    0.988
    28   1 H    0.999 --     9 C    0.988
    29   1 H    0.999 --     9 C    0.988
 ---------------------------------------------------------------------------

molecular dipole:
                 x           y           z       tot (Debye)
 q only:        1.953      -0.109      -0.223
   full:        1.970      -0.097      -0.148       5.027

           -------------------------------------------------
          | TOTAL ENERGY              -29.937642384184 Eh   |
          | GRADIENT NORM               0.000481367915 Eh/α |
          | HOMO-LUMO GAP               9.925448510939 eV   |
           -------------------------------------------------

 * finished run on 2023/01/24 at 16:11:50.353
