   * xtb version 6.5.1 (fef0646) compiled by 'conda@b96dff2e9fd6' on 2023-01-04
          program call               : xtb init.xyz --opt -c 0 -u 0 -P 16

   ID    Z sym.   atoms
    1    7 N      1
    2    6 C      2-13
    3   17 Cl     14
    4    1 H      15-28

          :  Hamiltonian                  GFN2-xTB          :
 * total energy  :   -40.2760237 Eh     change       -0.1159066E-08 Eh
 * total energy  :   -40.2845872 Eh     change       -0.8563484E-02 Eh
 * total energy  :   -40.2902037 Eh     change       -0.5616495E-02 Eh
 * total energy  :   -40.2928803 Eh     change       -0.2676553E-02 Eh
 * total energy  :   -40.2953196 Eh     change       -0.2439338E-02 Eh
 * total energy  :   -40.2965864 Eh     change       -0.1266768E-02 Eh
 * total energy  :   -40.2977119 Eh     change       -0.1125528E-02 Eh
 * total energy  :   -40.2982131 Eh     change       -0.5011782E-03 Eh
 * total energy  :   -40.2985063 Eh     change       -0.2932125E-03 Eh
 * total energy  :   -40.2985942 Eh     change       -0.8788491E-04 Eh
 * total energy  :   -40.3007465 Eh     change       -0.1050598E-03 Eh
 * total energy  :   -40.3008464 Eh     change       -0.9986257E-04 Eh
 * total energy  :   -40.3008709 Eh     change       -0.2453112E-04 Eh
 * total energy  :   -40.3009318 Eh     change       -0.6081682E-04 Eh
 * total energy  :   -40.3009624 Eh     change       -0.3063111E-04 Eh
 * total energy  :   -40.3009924 Eh     change       -0.2997900E-04 Eh
 * total energy  :   -40.3010030 Eh     change       -0.1060373E-04 Eh
 * total energy  :   -40.3010077 Eh     change       -0.4681375E-05 Eh
 * total energy  :   -40.3010123 Eh     change       -0.4609059E-05 Eh
   *** GEOMETRY OPTIMIZATION CONVERGED AFTER 39 ITERATIONS ***

 final structure:
================
28
 xtb: 6.5.1 (fef0646)
N            0.88231574559742       -0.25572740246265       -0.17235501357985
C            2.31850346315664        0.01822853535116       -0.31174196403861
C            3.08759866021940       -0.85908026031099        0.67394352645308
C            2.80896143268517       -0.18515104690716       -1.72913448046857
C            2.62480206614650       -1.42943850858240       -2.36595879016145
C            3.04378153689406       -1.62994708967413       -3.64935022457092
C            3.42054995498153        0.83047066757102       -2.41584366786718
C            3.86876442392044        0.65744668909521       -3.74132704233245
C            3.67346509275601       -0.59710646208390       -4.37472726709813
C            4.11300797141192       -0.76923564997557       -5.70333481135652
C            4.71995261177174        0.25535325571068       -6.37403475643750
C            4.91608887460351        1.49588793126627       -5.74695117978937
C            4.50014559905537        1.69386801512504       -4.46029581599470
Cl          -0.01740423348024        0.24806117659780        2.56231060945315
H            0.41718504017248        0.01344328761026        1.27391843328907
H            0.68111592810553       -1.22858949029059       -0.37991503106518
H            0.33889613845876        0.33036138111790       -0.79780219999775
H            2.46166487390865        1.06822902020853       -0.03407973584700
H            2.96875317017569       -1.91175210480432        0.42919798935882
H            2.71453352284767       -0.68995177540571        1.67954178797425
H            4.14584744672769       -0.61464773515834        0.63959481266829
H            2.14837631616653       -2.23739589944539       -1.82775693693034
H            2.89818810473834       -2.58754408730862       -4.12866853562001
H            3.57040160925850        1.79081300044504       -1.94177799721384
H            3.96001830342307       -1.72642504306436       -6.18112242245439
H            5.05387885924824        0.11898120959451       -7.39222035514907
H            5.39922754719786        2.29322995459787       -6.29245331026186
H            4.64898993985024        2.64733843118402       -3.97411562096087

          :  Hamiltonian                  GFN2-xTB          :
         :: total energy             -40.301012262869 Eh    ::
         :: gradient norm              0.000702800662 Eh/a0 ::
         :: HOMO-LUMO gap              3.226255984968 eV    ::
         :: SCC energy               -40.934968954150 Eh    ::
         :: -> dispersion             -0.026954077388 Eh    ::
         :: repulsion energy           0.634008383350 Eh    ::

    * Orbital Energies and Occupations

         #    Occupation            Energy/Eh            Energy/eV
      -------------------------------------------------------------
         1        2.0000           -1.0152685             -27.6269
       ...           ...                  ...                  ...
        25        2.0000           -0.4737676             -12.8919
        26        2.0000           -0.4681695             -12.7395
        27        2.0000           -0.4622418             -12.5782
        28        2.0000           -0.4564245             -12.4199
        29        2.0000           -0.4469107             -12.1611
        30        2.0000           -0.4354213             -11.8484
        31        2.0000           -0.4300616             -11.7026
        32        2.0000           -0.4240811             -11.5398
        33        2.0000           -0.4089796             -11.1289
        34        2.0000           -0.3963309             -10.7847
        35        2.0000           -0.3922807             -10.6745
        36        2.0000           -0.3922041             -10.6724
        37        2.0000           -0.3880402             -10.5591 (HOMO)
        38                         -0.2694774              -7.3329 (LUMO)
        39                         -0.2391967              -6.5089
        40                         -0.1985689              -5.4033
        41                         -0.1573912              -4.2828
        42                         -0.0679358              -1.8486
        43                         -0.0524540              -1.4273
        44                          0.0244523               0.6654
        45                          0.0674737               1.8361
        46                          0.0696496               1.8953
        47                          0.0699552               1.9036
        48                          0.0755111               2.0548
       ...                                ...                  ...
        75                          0.6873306              18.7032
      -------------------------------------------------------------
                  HL-Gap            0.1185627 Eh            3.2263 eV

     #   Z          covCN         q      C6AA      α(0)
     1   7 N        2.714    -0.305    27.837     7.836
     2   6 C        3.787     0.042    19.879     6.350
     3   6 C        3.756    -0.121    22.866     6.818
     4   6 C        2.967    -0.007    28.180     8.707
     5   6 C        2.920    -0.037    28.914     8.818
     6   6 C        2.917    -0.036    28.906     8.816
     7   6 C        2.923    -0.045    29.119     8.849
     8   6 C        2.986     0.013    27.708     8.635
     9   6 C        2.988     0.012    27.748     8.641
    10   6 C        2.918    -0.034    28.856     8.809
    11   6 C        2.916    -0.029    28.723     8.788
    12   6 C        2.916    -0.029    28.714     8.787
    13   6 C        2.918    -0.035    28.866     8.810
    14  17 Cl       0.836    -0.494   115.448    16.437
    15   1 H        0.917     0.331     0.625     1.236
    16   1 H        0.860     0.171     1.264     1.761
    17   1 H        0.860     0.165     1.305     1.789
    18   1 H        0.924     0.050     2.324     2.384
    19   1 H        0.925     0.046     2.373     2.409
    20   1 H        0.925     0.069     2.098     2.265
    21   1 H        0.925     0.048     2.339     2.392
    22   1 H        0.925     0.027     2.624     2.533
    23   1 H        0.926     0.033     2.541     2.493
    24   1 H        0.925     0.032     2.556     2.500
    25   1 H        0.926     0.033     2.550     2.497
    26   1 H        0.926     0.032     2.554     2.499
    27   1 H        0.926     0.033     2.550     2.497
    28   1 H        0.926     0.033     2.541     2.493

Wiberg/Mayer (AO) data.
largest (>0.10) Wiberg bond orders for each atom

     #   Z sym  total        # sym  WBO       # sym  WBO       # sym  WBO
 ---------------------------------------------------------------------------
     1   7 N    3.257 --     2 C    0.985    17 H    0.959    16 H    0.952
                            15 H    0.219
     2   6 C    3.971 --     3 C    0.998     4 C    0.988     1 N    0.985
                            18 H    0.963
     3   6 C    3.990 --     2 C    0.998    21 H    0.984    19 H    0.984
                            20 H    0.980
     4   6 C    3.988 --     7 C    1.529     5 C    1.295     2 C    0.988
     5   6 C    3.992 --     6 C    1.565     4 C    1.295    22 H    0.965
     6   6 C    3.992 --     5 C    1.565     9 C    1.276    23 H    0.968
                             7 C    0.114
     7   6 C    3.990 --     4 C    1.529     8 C    1.281    24 H    0.965
                             6 C    0.114
     8   6 C    3.990 --     7 C    1.281    13 C    1.279     9 C    1.252
     9   6 C    3.990 --    10 C    1.281     6 C    1.276     8 C    1.252
    10   6 C    3.992 --    11 C    1.556     9 C    1.281    25 H    0.968
                            13 C    0.118
    11   6 C    3.990 --    10 C    1.556    12 C    1.321    26 H    0.971
    12   6 C    3.992 --    13 C    1.558    11 C    1.321    27 H    0.971
    13   6 C    3.990 --    12 C    1.558     8 C    1.279    28 H    0.968
                            10 C    0.118
    14  17 Cl   0.758 --    15 H    0.667
    15   1 H    0.890 --    14 Cl   0.667     1 N    0.219
    16   1 H    0.971 --     1 N    0.952
    17   1 H    0.973 --     1 N    0.959
    18   1 H    0.997 --     2 C    0.963
    19   1 H    0.998 --     3 C    0.984
    20   1 H    0.994 --     3 C    0.980
    21   1 H    0.998 --     3 C    0.984
    22   1 H    0.999 --     5 C    0.965
    23   1 H    0.998 --     6 C    0.968
    24   1 H    0.998 --     7 C    0.965
    25   1 H    0.998 --    10 C    0.968
    26   1 H    0.999 --    11 C    0.971
    27   1 H    0.998 --    12 C    0.971
    28   1 H    0.998 --    13 C    0.968
 ---------------------------------------------------------------------------

molecular dipole:
                 x           y           z       tot (Debye)
 q only:        0.858      -0.356      -1.900
   full:        0.685      -0.347      -1.846       5.081

           -------------------------------------------------
          | TOTAL ENERGY              -40.301012262869 Eh   |
          | GRADIENT NORM               0.000702800662 Eh/α |
          | HOMO-LUMO GAP               3.226255984968 eV   |
           -------------------------------------------------

 * finished run on 2023/01/23 at 14:28:25.867
