   * xtb version 6.5.1 (fef0646) compiled by 'conda@b96dff2e9fd6' on 2023-01-04
          program call               : xtb init.xyz --opt -c 0 -u 0 -P 16

   ID    Z sym.   atoms
    1    7 N      1
    2    6 C      2-13
    3   17 Cl     14
    4    1 H      15-28

          :  Hamiltonian                  GFN2-xTB          :
 * total energy  :   -40.2813799 Eh     change       -0.2946763E-09 Eh
 * total energy  :   -40.2899113 Eh     change       -0.8531475E-02 Eh
 * total energy  :   -40.2941260 Eh     change       -0.4214616E-02 Eh
 * total energy  :   -40.2960127 Eh     change       -0.1886753E-02 Eh
 * total energy  :   -40.2981342 Eh     change       -0.2121471E-02 Eh
 * total energy  :   -40.2995612 Eh     change       -0.1427033E-02 Eh
 * total energy  :   -40.3004654 Eh     change       -0.9042004E-03 Eh
 * total energy  :   -40.3006771 Eh     change       -0.2117229E-03 Eh
 * total energy  :   -40.3007545 Eh     change       -0.7741916E-04 Eh
 * total energy  :   -40.3007708 Eh     change       -0.1626721E-04 Eh
 * total energy  :   -40.3007844 Eh     change       -0.1362301E-04 Eh
 * total energy  :   -40.3007958 Eh     change       -0.1133227E-04 Eh
 * total energy  :   -40.3008026 Eh     change       -0.6862710E-05 Eh
 * total energy  :   -40.3008073 Eh     change       -0.4701393E-05 Eh
   *** GEOMETRY OPTIMIZATION CONVERGED AFTER 14 ITERATIONS ***

 final structure:
================
28
 xtb: 6.5.1 (fef0646)
N            2.46571526163313        0.83372705038246       -0.91583539131018
C            2.31945632359971       -0.01819923592011        0.26641397397222
C            0.84574445743404       -0.39596939417242        0.41742738140284
C            2.82344345688664        0.60768039240770        1.55061368170974
C            3.44626868597566       -0.21538580494291        2.51008800001376
C            3.88585957101334        0.29585232043229        3.69667749052577
C            2.65906263881715        1.94065817447609        1.82321238956734
C            3.10632204380492        2.50363518289741        3.03599531110407
C            3.73233220726864        1.66611909987668        3.99457659623098
C            4.17739491881705        2.22907799529186        5.20815001636894
C            4.00941396990060        3.56165983875656        5.46118746834943
C            3.38922717222302        4.39060271925091        4.51325405906629
C            2.94759304593582        3.87452882355467        3.32743220172676
Cl           1.61095651940829       -0.60302926956357       -3.31823473312202
H            3.42694413165660        1.13634573384435       -1.03294338192135
H            1.86777149034727        1.65053507448387       -0.84831915869057
H            2.01767476513423        0.06615410899441       -2.18408716937661
H            2.89889551355627       -0.92672647811122        0.06651088501213
H            0.24998473866436        0.49034932864254        0.62562815441585
H            0.72094637547951       -1.09524797011205        1.23932131631014
H            0.48868049313256       -0.85506855390593       -0.49984302420933
H            3.57077679301045       -1.26600996862022        2.28995836254404
H            4.36123449628696       -0.34404244274038        4.42612835126016
H            2.17675838557048        2.59873593598116        1.11225674695061
H            4.65366393436533        1.58601224428872        5.93442163970148
H            4.35252150807033        3.98779168992441        6.39250521251717
H            3.26453962680241        5.44135805910525        4.73029940290045
H            2.46933747524093        4.51088534545533        2.59603421701314

          :  Hamiltonian                  GFN2-xTB          :
         :: total energy             -40.300807339999 Eh    ::
         :: gradient norm              0.000448404127 Eh/a0 ::
         :: HOMO-LUMO gap              3.225153035677 eV    ::
         :: SCC energy               -40.934937879405 Eh    ::
         :: -> dispersion             -0.026974880656 Eh    ::
         :: repulsion energy           0.634155559298 Eh    ::

    * Orbital Energies and Occupations

         #    Occupation            Energy/Eh            Energy/eV
      -------------------------------------------------------------
         1        2.0000           -1.0160256             -27.6475
       ...           ...                  ...                  ...
        25        2.0000           -0.4737339             -12.8910
        26        2.0000           -0.4713769             -12.8268
        27        2.0000           -0.4577100             -12.4549
        28        2.0000           -0.4553756             -12.3914
        29        2.0000           -0.4497570             -12.2385
        30        2.0000           -0.4351678             -11.8415
        31        2.0000           -0.4295973             -11.6899
        32        2.0000           -0.4241124             -11.5407
        33        2.0000           -0.4073869             -11.0856
        34        2.0000           -0.3975056             -10.8167
        35        2.0000           -0.3930427             -10.6952
        36        2.0000           -0.3929510             -10.6927
        37        2.0000           -0.3876386             -10.5482 (HOMO)
        38                         -0.2691164              -7.3230 (LUMO)
        39                         -0.2381790              -6.4812
        40                         -0.1984676              -5.4006
        41                         -0.1561767              -4.2498
        42                         -0.0670009              -1.8232
        43                         -0.0549550              -1.4954
        44                          0.0223172               0.6073
        45                          0.0640980               1.7442
        46                          0.0686403               1.8678
        47                          0.0690134               1.8780
        48                          0.0745697               2.0291
       ...                                ...                  ...
        75                          0.6866893              18.6858
      -------------------------------------------------------------
                  HL-Gap            0.1185222 Eh            3.2252 eV

     #   Z          covCN         q      C6AA      α(0)
     1   7 N        2.708    -0.306    27.867     7.840
     2   6 C        3.787     0.042    19.881     6.351
     3   6 C        3.758    -0.120    22.841     6.814
     4   6 C        2.968    -0.005    28.151     8.703
     5   6 C        2.920    -0.039    28.969     8.826
     6   6 C        2.916    -0.034    28.853     8.808
     7   6 C        2.923    -0.044    29.091     8.845
     8   6 C        2.986     0.012    27.749     8.641
     9   6 C        2.988     0.012    27.748     8.641
    10   6 C        2.918    -0.034    28.848     8.808
    11   6 C        2.916    -0.029    28.730     8.790
    12   6 C        2.916    -0.029    28.721     8.788
    13   6 C        2.918    -0.036    28.889     8.814
    14  17 Cl       0.837    -0.492   115.368    16.432
    15   1 H        0.860     0.166     1.300     1.786
    16   1 H        0.860     0.171     1.267     1.763
    17   1 H        0.911     0.331     0.625     1.237
    18   1 H        0.924     0.052     2.295     2.369
    19   1 H        0.925     0.044     2.394     2.420
    20   1 H        0.925     0.050     2.326     2.385
    21   1 H        0.925     0.069     2.097     2.265
    22   1 H        0.926     0.032     2.560     2.502
    23   1 H        0.926     0.035     2.515     2.480
    24   1 H        0.925     0.026     2.645     2.543
    25   1 H        0.926     0.033     2.546     2.495
    26   1 H        0.926     0.032     2.557     2.501
    27   1 H        0.926     0.032     2.560     2.502
    28   1 H        0.926     0.030     2.584     2.514

Wiberg/Mayer (AO) data.
largest (>0.10) Wiberg bond orders for each atom

     #   Z sym  total        # sym  WBO       # sym  WBO       # sym  WBO
 ---------------------------------------------------------------------------
     1   7 N    3.255 --     2 C    0.993    15 H    0.958    16 H    0.951
                            17 H    0.215
     2   6 C    3.972 --     3 C    0.993     1 N    0.993     4 C    0.988
                            18 H    0.961
     3   6 C    3.989 --     2 C    0.993    19 H    0.985    20 H    0.984
                            21 H    0.980
     4   6 C    3.988 --     7 C    1.531     5 C    1.292     2 C    0.988
     5   6 C    3.991 --     6 C    1.566     4 C    1.292    22 H    0.968
     6   6 C    3.992 --     5 C    1.566     9 C    1.275    23 H    0.968
                             7 C    0.114
     7   6 C    3.992 --     4 C    1.531     8 C    1.279    24 H    0.963
                             6 C    0.114
     8   6 C    3.990 --    13 C    1.280     7 C    1.279     9 C    1.252
     9   6 C    3.990 --    10 C    1.282     6 C    1.275     8 C    1.252
    10   6 C    3.992 --    11 C    1.556     9 C    1.282    25 H    0.968
                            13 C    0.118
    11   6 C    3.990 --    10 C    1.556    12 C    1.321    26 H    0.971
    12   6 C    3.992 --    13 C    1.557    11 C    1.321    27 H    0.971
    13   6 C    3.990 --    12 C    1.557     8 C    1.280    28 H    0.968
                            10 C    0.118
    14  17 Cl   0.761 --    17 H    0.670
    15   1 H    0.973 --     1 N    0.958
    16   1 H    0.971 --     1 N    0.951
    17   1 H    0.890 --    14 Cl   0.670     1 N    0.215
    18   1 H    0.997 --     2 C    0.961
    19   1 H    0.998 --     3 C    0.985
    20   1 H    0.998 --     3 C    0.984
    21   1 H    0.994 --     3 C    0.980
    22   1 H    0.999 --     5 C    0.968
    23   1 H    0.998 --     6 C    0.968
    24   1 H    0.999 --     7 C    0.963
    25   1 H    0.998 --    10 C    0.968
    26   1 H    0.999 --    11 C    0.971
    27   1 H    0.999 --    12 C    0.971
    28   1 H    0.999 --    13 C    0.968
 ---------------------------------------------------------------------------

molecular dipole:
                 x           y           z       tot (Debye)
 q only:        0.469       0.865       1.815
   full:        0.488       0.915       1.650       4.953

           -------------------------------------------------
          | TOTAL ENERGY              -40.300807339999 Eh   |
          | GRADIENT NORM               0.000448404127 Eh/α |
          | HOMO-LUMO GAP               3.225153035677 eV   |
           -------------------------------------------------

 * finished run on 2023/01/23 at 14:29:53.157
