   * xtb version 6.5.1 (fef0646) compiled by 'conda@b96dff2e9fd6' on 2023-01-04
          program call               : xtb init.xyz --opt -c 0 -u 0 -P 16 --input xtb.inp

   ID    Z sym.   atoms
    1    7 N      1
    2    6 C      2-17
    3   17 Cl     18
    4    1 H      19-36

          :  Hamiltonian                  GFN2-xTB          :
 * total energy  :   -50.8459208 Eh     change       -0.5316778E-09 Eh
 * total energy  :   -50.8543380 Eh     change       -0.8417143E-02 Eh
 * total energy  :   -50.8589722 Eh     change       -0.4634208E-02 Eh
 * total energy  :   -50.8618097 Eh     change       -0.2837468E-02 Eh
 * total energy  :   -50.8646261 Eh     change       -0.2816450E-02 Eh
 * total energy  :   -50.8664215 Eh     change       -0.1795362E-02 Eh
 * total energy  :   -50.8671088 Eh     change       -0.6872909E-03 Eh
 * total energy  :   -50.8674616 Eh     change       -0.3528504E-03 Eh
 * total energy  :   -50.8676173 Eh     change       -0.1556469E-03 Eh
 * total energy  :   -50.8677228 Eh     change       -0.1055318E-03 Eh
 * total energy  :   -50.8686897 Eh     change       -0.1204827E-04 Eh
 * total energy  :   -50.8687025 Eh     change       -0.1277589E-04 Eh
 * total energy  :   -50.8687178 Eh     change       -0.1537764E-04 Eh
 * total energy  :   -50.8687269 Eh     change       -0.9049845E-05 Eh
 * total energy  :   -50.8687330 Eh     change       -0.6155749E-05 Eh
 * total energy  :   -50.8687388 Eh     change       -0.5778821E-05 Eh
 * total energy  :   -50.8687450 Eh     change       -0.6223872E-05 Eh
 * total energy  :   -50.8687505 Eh     change       -0.5468614E-05 Eh
 * total energy  :   -50.8687548 Eh     change       -0.4276198E-05 Eh
   *** GEOMETRY OPTIMIZATION CONVERGED AFTER 35 ITERATIONS ***

 final structure:
================
36
 xtb: 6.5.1 (fef0646)
N            0.74995583383778        1.44451674605075       -1.73442653567570
C            2.18167530085064        1.59470216709971       -1.99788807335595
C            2.96758393435809        1.08572421945230       -0.79416061583874
C            4.46614742701310        1.13651489792693       -0.92648837434931
C            5.12818932621659        1.56787810344067       -2.06845484912855
C            6.50891975681897        1.59025359637022       -2.12577470652044
C            7.28506508347579        1.17890132048692       -1.04225101923590
C            8.73600925651841        1.18558835425577       -1.05122776451917
C            9.51489717751260        1.81368068858740       -1.94274409108245
C           10.96630265305512        1.83699897364886       -1.94975717255445
C           11.74909513962089        0.97037716109792       -1.18286143575008
C           13.12763412164987        1.03816186178881       -1.22651441319762
C           13.75951921307249        1.97085667936592       -2.03347479179923
C           12.99866554667575        2.83362352492572       -2.80541564075831
C           11.62030578424836        2.76335618413878       -2.76742154118553
C            6.61316249706136        0.73216109918116        0.10002916838226
C            5.23696516088096        0.71825155437347        0.15618810806129
Cl           0.13458236785107       -1.36547201423284       -1.16353718342482
H            0.19543084140593        1.73537157439931       -2.53184220239159
H            0.47235640941729        1.99160169863353       -0.92587610703106
H            0.42502526853856       -0.04958730187715       -1.43522774230550
H            2.45017020357490        2.63965819221174       -2.20849410599836
H            2.41321130779578        0.98915508056244       -2.87667759446486
H            2.66692395818451        0.05200930951410       -0.60529256495479
H            2.67931805435915        1.66765935213012        0.08746570622929
H            4.57108923577579        1.88993823888782       -2.93462415888651
H            6.98702678736026        1.91853071083240       -3.03604162007431
H            9.19221779255099        0.65001627082498       -0.22886763534431
H            9.05463663386952        2.39702384908514       -2.72981502656417
H           11.27576414711214        0.22793372338722       -0.55839715733654
H           13.71663668842047        0.35703483168322       -0.62901017037720
H           14.83786319368660        2.02127898476983       -2.06406938215246
H           13.48329328378554        3.56133329138573       -3.44043387111191
H           11.03234623288141        3.43983210681730       -3.37240325215935
H            7.18606286049935        0.40006685682974        0.95447739751832
H            4.74102152005956        0.37233811196394        1.05216041933461

          :  Hamiltonian                  GFN2-xTB          :
         :: total energy             -50.868754796730 Eh    ::
         :: gradient norm              0.000390021029 Eh/a0 ::
         :: HOMO-LUMO gap              2.794999820130 eV    ::
         :: SCC energy               -51.709896808819 Eh    ::
         :: -> dispersion             -0.033557018356 Eh    ::
         :: repulsion energy           0.841542951799 Eh    ::

    * Orbital Energies and Occupations

         #    Occupation            Energy/Eh            Energy/eV
      -------------------------------------------------------------
         1        2.0000           -1.0185181             -27.7153
       ...           ...                  ...                  ...
        35        2.0000           -0.4440817             -12.0841
        36        2.0000           -0.4362055             -11.8698
        37        2.0000           -0.4330274             -11.7833
        38        2.0000           -0.4222776             -11.4908
        39        2.0000           -0.4201549             -11.4330
        40        2.0000           -0.4146323             -11.2827
        41        2.0000           -0.4074022             -11.0860
        42        2.0000           -0.4055246             -11.0349
        43        2.0000           -0.4035603             -10.9814
        44        2.0000           -0.4006149             -10.9013
        45        2.0000           -0.3954086             -10.7596
        46        2.0000           -0.3953330             -10.7576
        47        2.0000           -0.3689218             -10.0389 (HOMO)
        48                         -0.2662074              -7.2439 (LUMO)
        49                         -0.2225557              -6.0560
        50                         -0.2208601              -6.0099
        51                         -0.2100328              -5.7153
        52                         -0.1618575              -4.4044
        53                         -0.0874399              -2.3794
        54                         -0.0698338              -1.9003
        55                         -0.0585422              -1.5930
        56                          0.0087383               0.2378
        57                          0.0656474               1.7864
        58                          0.0662084               1.8016
       ...                                ...                  ...
        95                          0.7027586              19.1230
      -------------------------------------------------------------
                  HL-Gap            0.1027144 Eh            2.7950 eV

     #   Z          covCN         q      C6AA      α(0)
     1   7 N        2.697    -0.306    27.872     7.841
     2   6 C        3.731     0.010    20.508     6.464
     3   6 C        3.810    -0.079    22.000     6.677
     4   6 C        2.966     0.012    27.748     8.640
     5   6 C        2.921    -0.042    29.046     8.838
     6   6 C        2.924    -0.035    28.871     8.812
     7   6 C        2.970     0.011    27.768     8.644
     8   6 C        2.901    -0.039    28.972     8.826
     9   6 C        2.901    -0.040    28.991     8.828
    10   6 C        2.970     0.014    27.688     8.631
    11   6 C        2.924    -0.034    28.840     8.807
    12   6 C        2.918    -0.029    28.737     8.791
    13   6 C        2.920    -0.031    28.768     8.796
    14   6 C        2.917    -0.030    28.743     8.792
    15   6 C        2.929    -0.034    28.858     8.810
    16   6 C        2.927    -0.035    28.863     8.810
    17   6 C        2.925    -0.040    28.993     8.830
    18  17 Cl       0.837    -0.487   115.204    16.420
    19   1 H        0.860     0.166     1.297     1.784
    20   1 H        0.860     0.167     1.291     1.780
    21   1 H        0.902     0.332     0.622     1.234
    22   1 H        0.923     0.027     2.624     2.533
    23   1 H        0.924     0.055     2.257     2.349
    24   1 H        0.924     0.076     2.025     2.225
    25   1 H        0.924     0.048     2.340     2.392
    26   1 H        0.926     0.028     2.621     2.532
    27   1 H        0.926     0.033     2.542     2.493
    28   1 H        0.925     0.036     2.505     2.475
    29   1 H        0.925     0.035     2.523     2.484
    30   1 H        0.926     0.032     2.556     2.500
    31   1 H        0.926     0.029     2.599     2.521
    32   1 H        0.926     0.029     2.601     2.522
    33   1 H        0.926     0.029     2.606     2.525
    34   1 H        0.925     0.029     2.606     2.525
    35   1 H        0.926     0.032     2.555     2.499
    36   1 H        0.926     0.032     2.560     2.502

Wiberg/Mayer (AO) data.
largest (>0.10) Wiberg bond orders for each atom

     #   Z sym  total        # sym  WBO       # sym  WBO       # sym  WBO
 ---------------------------------------------------------------------------
     1   7 N    3.240 --     2 C    1.003    19 H    0.959    20 H    0.958
                            21 H    0.208
     2   6 C    3.973 --     3 C    1.007     1 N    1.003    23 H    0.973
                            22 H    0.972
     3   6 C    3.992 --     4 C    1.011     2 C    1.007    25 H    0.961
                            24 H    0.955
     4   6 C    3.977 --     5 C    1.408    17 C    1.389     3 C    1.011
     5   6 C    3.992 --     6 C    1.457     4 C    1.408    26 H    0.967
     6   6 C    3.983 --     5 C    1.457     7 C    1.370    27 H    0.966
                            17 C    0.103
     7   6 C    3.989 --     6 C    1.370    16 C    1.355     8 C    1.112
     8   6 C    3.990 --     9 C    1.762     7 C    1.112    28 H    0.959
     9   6 C    3.988 --     8 C    1.762    10 C    1.111    29 H    0.959
    10   6 C    3.989 --    15 C    1.366    11 C    1.365     9 C    1.111
    11   6 C    3.978 --    12 C    1.463    10 C    1.365    30 H    0.966
                            14 C    0.105
    12   6 C    3.993 --    11 C    1.463    13 C    1.427    31 H    0.971
                            15 C    0.104
    13   6 C    3.981 --    14 C    1.430    12 C    1.427    32 H    0.972
    14   6 C    3.992 --    15 C    1.461    13 C    1.430    33 H    0.971
                            11 C    0.105
    15   6 C    3.983 --    14 C    1.461    10 C    1.366    34 H    0.969
                            12 C    0.104
    16   6 C    3.978 --    17 C    1.478     7 C    1.355    35 H    0.969
    17   6 C    3.991 --    16 C    1.478     4 C    1.389    36 H    0.969
                             6 C    0.103
    18  17 Cl   0.766 --    21 H    0.677
    19   1 H    0.972 --     1 N    0.959
    20   1 H    0.972 --     1 N    0.958
    21   1 H    0.890 --    18 Cl   0.677     1 N    0.208
    22   1 H    0.999 --     2 C    0.972
    23   1 H    0.997 --     2 C    0.973
    24   1 H    0.992 --     3 C    0.955
    25   1 H    0.996 --     3 C    0.961
    26   1 H    0.999 --     5 C    0.967
    27   1 H    0.999 --     6 C    0.966
    28   1 H    0.998 --     8 C    0.959
    29   1 H    0.998 --     9 C    0.959
    30   1 H    0.999 --    11 C    0.966
    31   1 H    0.999 --    12 C    0.971
    32   1 H    0.999 --    13 C    0.972
    33   1 H    0.999 --    14 C    0.971
    34   1 H    0.999 --    15 C    0.969
    35   1 H    0.999 --    16 C    0.969
    36   1 H    0.999 --    17 C    0.969
 ---------------------------------------------------------------------------

molecular dipole:
                 x           y           z       tot (Debye)
 q only:        0.458       1.788      -0.272
   full:        0.248       1.719      -0.265       4.465

           -------------------------------------------------
          | TOTAL ENERGY              -50.868754796730 Eh   |
          | GRADIENT NORM               0.000390021029 Eh/α |
          | HOMO-LUMO GAP               2.794999820130 eV   |
           -------------------------------------------------

 * finished run on 2023/01/23 at 19:11:57.355
