   * xtb version 6.5.1 (fef0646) compiled by 'conda@b96dff2e9fd6' on 2023-01-04
          program call               : xtb init.xyz --opt -c 1 -u 0 -P 16 --alpb water

   ID    Z sym.   atoms
    1    7 N      1
    2    6 C      2-7
    3    1 H      8-15

      * Solvation model:               ALPB
        Solvent                        water
        Solvent mass                       1.8000E+01 g/mol
          :  Hamiltonian                  GFN2-xTB          :
 * total energy  :   -19.4951979 Eh     change       -0.1771028E-10 Eh
 * total energy  :   -19.4965196 Eh     change       -0.1321745E-02 Eh
 * total energy  :   -19.4966311 Eh     change       -0.1114448E-03 Eh
 * total energy  :   -19.4966420 Eh     change       -0.1092999E-04 Eh
 * total energy  :   -19.4966445 Eh     change       -0.2462013E-05 Eh
   *** GEOMETRY OPTIMIZATION CONVERGED AFTER 5 ITERATIONS ***

 final structure:
================
15
 xtb: 6.5.1 (fef0646)
N            2.32576073212905       -0.04785903287694       -0.16088102052363
C            0.86366640813855       -0.02781848970478       -0.06694057470756
C            0.16662091036698       -1.22499840459256       -0.03797323316339
C           -1.21612730540069       -1.20386674747778        0.03533018437164
C           -1.89191340890938        0.00527369840142        0.07876820818869
C           -1.18654613421957        1.19724765851502        0.04998909573754
C            0.19700007675569        1.18498775832711       -0.02350655702888
H            2.71637008760591       -0.81388395697365        0.40461517061022
H            2.71929490202569        0.84490403523034        0.16562798190952
H            2.62440327125023       -0.19188512620515       -1.13717409843427
H            0.68600732440670       -2.16923774322226       -0.07269047244945
H           -1.76702946031029       -2.13080249331195        0.05859360237550
H           -2.96915829148018        0.01823522245898        0.13576385633647
H           -1.71402419579458        2.13735172918139        0.08488610328439
H            0.73828508343588        2.11732189225079       -0.04671824650678

          :  Hamiltonian                  GFN2-xTB          :
         :: total energy             -19.496644462764 Eh    ::
         :: gradient norm              0.000471673417 Eh/a0 ::
         :: HOMO-LUMO gap              4.853973503907 eV    ::
         :: SCC energy               -19.854626398714 Eh    ::
         :: -> dispersion             -0.009532656590 Eh    ::
         :: -> Gsolv                  -0.115335770605 Eh    ::
         :: repulsion energy           0.357963232248 Eh    ::

    * Orbital Energies and Occupations

         #    Occupation            Energy/Eh            Energy/eV
      -------------------------------------------------------------
         1        2.0000           -0.7036949             -19.1485
       ...           ...                  ...                  ...
         6        2.0000           -0.6034444             -16.4206
         7        2.0000           -0.5913028             -16.0902
         8        2.0000           -0.5672511             -15.4357
         9        2.0000           -0.5637647             -15.3408
        10        2.0000           -0.5270475             -14.3417
        11        2.0000           -0.5062115             -13.7747
        12        2.0000           -0.4971958             -13.5294
        13        2.0000           -0.4928795             -13.4119
        14        2.0000           -0.4907463             -13.3539
        15        2.0000           -0.4464501             -12.1485
        16        2.0000           -0.4360295             -11.8650
        17        2.0000           -0.4213969             -11.4668
        18        2.0000           -0.4211151             -11.4591 (HOMO)
        19                         -0.2427349              -6.6052 (LUMO)
        20                         -0.2397611              -6.5242
        21                         -0.1107723              -3.0143
        22                         -0.0515963              -1.4040
        23                          0.0505914               1.3767
        24                          0.1167549               3.1771
        25                          0.1233445               3.3564
        26                          0.1467581               3.9935
        27                          0.1486633               4.0453
        28                          0.1795751               4.8865
        29                          0.1816828               4.9438
       ...                                ...                  ...
        36                          0.6472080              17.6114
      -------------------------------------------------------------
                  HL-Gap            0.1783802 Eh            4.8540 eV

     #   Z          covCN         q      C6AA      α(0)
     1   7 N        3.488    -0.169    24.634     7.372
     2   6 C        2.904     0.066    26.512     8.443
     3   6 C        2.920    -0.049    29.225     8.865
     4   6 C        2.921    -0.027    28.679     8.782
     5   6 C        2.919    -0.029    28.726     8.789
     6   6 C        2.921    -0.027    28.679     8.782
     7   6 C        2.920    -0.049    29.208     8.863
     8   1 H        0.859     0.322     0.652     1.265
     9   1 H        0.859     0.318     0.661     1.273
    10   1 H        0.859     0.329     0.633     1.246
    11   1 H        0.926     0.084     1.937     2.177
    12   1 H        0.926     0.052     2.291     2.367
    13   1 H        0.926     0.043     2.414     2.430
    14   1 H        0.926     0.052     2.292     2.367
    15   1 H        0.926     0.083     1.950     2.184

Wiberg/Mayer (AO) data.
largest (>0.10) Wiberg bond orders for each atom

     #   Z sym  total        # sym  WBO       # sym  WBO       # sym  WBO
 ---------------------------------------------------------------------------
     1   7 N    3.648 --     2 C    0.967     9 H    0.881     8 H    0.878
                            10 H    0.869
     2   6 C    3.941 --     7 C    1.419     3 C    1.415     1 N    0.967
                             5 C    0.106
     3   6 C    3.987 --     4 C    1.440     2 C    1.415    11 H    0.962
                             6 C    0.113
     4   6 C    3.991 --     3 C    1.440     5 C    1.440    12 H    0.970
                             7 C    0.112
     5   6 C    3.992 --     6 C    1.443     4 C    1.440    13 H    0.971
                             2 C    0.106
     6   6 C    3.991 --     5 C    1.443     7 C    1.435    14 H    0.970
                             3 C    0.113
     7   6 C    3.987 --     6 C    1.435     2 C    1.419    15 H    0.962
                             4 C    0.112
     8   1 H    0.896 --     1 N    0.878
     9   1 H    0.898 --     1 N    0.881
    10   1 H    0.892 --     1 N    0.869
    11   1 H    0.993 --     3 C    0.962
    12   1 H    0.997 --     4 C    0.970
    13   1 H    0.997 --     5 C    0.971
    14   1 H    0.997 --     6 C    0.970
    15   1 H    0.993 --     7 C    0.962
 ---------------------------------------------------------------------------

molecular dipole:
                 x           y           z       tot (Debye)
 q only:        4.122      -0.100      -0.315
   full:        4.097      -0.098      -0.317      10.448

           -------------------------------------------------
          | TOTAL ENERGY              -19.496644462764 Eh   |
          | GRADIENT NORM               0.000471673417 Eh/α |
          | HOMO-LUMO GAP               4.853973503907 eV   |
           -------------------------------------------------

 * finished run on 2023/01/24 at 15:09:28.291
