   * xtb version 6.5.1 (fef0646) compiled by 'conda@b96dff2e9fd6' on 2023-01-04
          program call               : xtb init.xyz --opt -c 1 -u 0 -P 16 --alpb water

   ID    Z sym.   atoms
    1    7 N      1
    2    6 C      2-5
    3   35 Br     6
    4    1 H      7-17

      * Solvation model:               ALPB
        Solvent                        water
        Solvent mass                       1.8000E+01 g/mol
          :  Hamiltonian                  GFN2-xTB          :
 * total energy  :   -20.8530800 Eh     change       -0.1684057E-09 Eh
 * total energy  :   -20.8547198 Eh     change       -0.1639786E-02 Eh
 * total energy  :   -20.8550159 Eh     change       -0.2961752E-03 Eh
 * total energy  :   -20.8550445 Eh     change       -0.2855487E-04 Eh
 * total energy  :   -20.8550498 Eh     change       -0.5268120E-05 Eh
 * total energy  :   -20.8550509 Eh     change       -0.1110746E-05 Eh
   *** GEOMETRY OPTIMIZATION CONVERGED AFTER 6 ITERATIONS ***

 final structure:
================
17
 xtb: 6.5.1 (fef0646)
N            1.02496657973291       -0.03808314079410       -0.09191431903390
C            2.50711963792628       -0.04027344087941       -0.07249026437445
C            3.02501464358129       -0.36933568174115        1.32470828963723
C            4.55546888469451       -0.37388151929797        1.33580281205599
C            5.07324556813205       -0.69730005207842        2.72615260770959
Br           7.07454922549355       -0.71377943242362        2.76853444747663
H            0.67576835737919        0.18411410383298       -1.03136941958652
H            0.66118975593167        0.66038964658585        0.56730936942593
H            0.66364761490039       -0.95939824576309        0.18288122082848
H            2.87129529696555        0.94065363371432       -0.37728538662933
H            2.87420767442661       -0.78015037294355       -0.78350562606864
H            2.67093216199789       -1.35163961722258        1.63858371404400
H            2.67255830437129        0.37090291934172        2.04350075910001
H            4.93814113761214        0.60135178519883        1.03069273803262
H            4.93562552745423       -1.11610442800630        0.63205702117309
H            4.77204365294874       -1.68893934126153        3.05882932239271
H            4.77783597645171        0.04943318373802        3.46092271381656

          :  Hamiltonian                  GFN2-xTB          :
         :: total energy             -20.855050866517 Eh    ::
         :: gradient norm              0.000166147848 Eh/a0 ::
         :: HOMO-LUMO gap              5.071312435352 eV    ::
         :: SCC energy               -21.093063825172 Eh    ::
         :: -> dispersion             -0.008590791728 Eh    ::
         :: -> Gsolv                  -0.131760836734 Eh    ::
         :: repulsion energy           0.238032628806 Eh    ::

    * Orbital Energies and Occupations

         #    Occupation            Energy/Eh            Energy/eV
      -------------------------------------------------------------
         1        2.0000           -0.8399838             -22.8571
       ...           ...                  ...                  ...
         7        2.0000           -0.5922066             -16.1148
         8        2.0000           -0.5712258             -15.5438
         9        2.0000           -0.5531455             -15.0519
        10        2.0000           -0.5408702             -14.7178
        11        2.0000           -0.5094619             -13.8632
        12        2.0000           -0.5073908             -13.8068
        13        2.0000           -0.5012408             -13.6395
        14        2.0000           -0.4702723             -12.7968
        15        2.0000           -0.4670514             -12.7091
        16        2.0000           -0.4626472             -12.5893
        17        2.0000           -0.4420737             -12.0294
        18        2.0000           -0.4090199             -11.1300
        19        2.0000           -0.4071228             -11.0784 (HOMO)
        20                         -0.2207555              -6.0071 (LUMO)
        21                         -0.0536507              -1.4599
        22                          0.0223234               0.6075
        23                          0.0390840               1.0635
        24                          0.0441715               1.2020
        25                          0.0538575               1.4655
        26                          0.0580411               1.5794
        27                          0.0731646               1.9909
        28                          0.0938136               2.5528
        29                          0.0957497               2.6055
        30                          0.1355263               3.6879
       ...                                ...                  ...
        40                          0.3307415               8.9999
      -------------------------------------------------------------
                  HL-Gap            0.1863673 Eh            5.0713 eV

     #   Z          covCN         q      C6AA      α(0)
     1   7 N        3.485    -0.162    24.489     7.350
     2   6 C        3.733    -0.040    21.374     6.599
     3   6 C        3.804    -0.090    22.214     6.710
     4   6 C        3.846    -0.075    21.901     6.657
     5   6 C        3.737     0.014    20.414     6.447
     6  35 Br       0.953    -0.281   192.869    22.392
     7   1 H        0.859     0.319     0.660     1.272
     8   1 H        0.859     0.311     0.682     1.293
     9   1 H        0.859     0.311     0.681     1.293
    10   1 H        0.925     0.114     1.664     2.017
    11   1 H        0.925     0.114     1.665     2.018
    12   1 H        0.924     0.079     1.992     2.207
    13   1 H        0.924     0.079     1.994     2.208
    14   1 H        0.924     0.068     2.103     2.268
    15   1 H        0.924     0.068     2.104     2.268
    16   1 H        0.926     0.085     1.926     2.171
    17   1 H        0.926     0.085     1.927     2.171

Wiberg/Mayer (AO) data.
largest (>0.10) Wiberg bond orders for each atom

     #   Z sym  total        # sym  WBO       # sym  WBO       # sym  WBO
 ---------------------------------------------------------------------------
     1   7 N    3.651 --     2 C    0.970     8 H    0.889     9 H    0.888
                             7 H    0.885
     2   6 C    3.925 --     3 C    1.009     1 N    0.970    11 H    0.965
                            10 H    0.965
     3   6 C    3.987 --     2 C    1.009     4 C    0.995    13 H    0.971
                            12 H    0.971
     4   6 C    3.985 --     5 C    1.013     3 C    0.995    14 H    0.973
                            15 H    0.973
     5   6 C    3.916 --     4 C    1.013    17 H    0.971    16 H    0.971
                             6 Br   0.943
     6  35 Br   0.997 --     5 C    0.943
     7   1 H    0.898 --     1 N    0.885
     8   1 H    0.903 --     1 N    0.889
     9   1 H    0.903 --     1 N    0.888
    10   1 H    0.987 --     2 C    0.965
    11   1 H    0.987 --     2 C    0.965
    12   1 H    0.994 --     3 C    0.971
    13   1 H    0.994 --     3 C    0.971
    14   1 H    0.995 --     4 C    0.973
    15   1 H    0.995 --     4 C    0.973
    16   1 H    0.993 --     5 C    0.971
    17   1 H    0.993 --     5 C    0.971
 ---------------------------------------------------------------------------

molecular dipole:
                 x           y           z       tot (Debye)
 q only:        0.752      -0.017      -0.395
   full:        0.763      -0.067      -0.179       1.999

           -------------------------------------------------
          | TOTAL ENERGY              -20.855050866517 Eh   |
          | GRADIENT NORM               0.000166147848 Eh/α |
          | HOMO-LUMO GAP               5.071312435352 eV   |
           -------------------------------------------------

 * finished run on 2023/01/24 at 16:02:39.648
