   * xtb version 6.5.1 (fef0646) compiled by 'conda@b96dff2e9fd6' on 2023-01-04
          program call               : xtb init.xyz --opt -c 1 -u 0 -P 16 --input xtb.inp

   ID    Z sym.   atoms
    1    7 N      1
    2    6 C      2-5
    3   35 Br     6
    4    1 H      7-17

          :  Hamiltonian                  GFN2-xTB          :
 * total energy  :   -20.7323100 Eh     change       -0.5746870E-10 Eh
 * total energy  :   -20.7332345 Eh     change       -0.9245289E-03 Eh
 * total energy  :   -20.7333626 Eh     change       -0.1280972E-03 Eh
 * total energy  :   -20.7333814 Eh     change       -0.1878364E-04 Eh
 * total energy  :   -20.7333861 Eh     change       -0.4669104E-05 Eh
   *** GEOMETRY OPTIMIZATION CONVERGED AFTER 5 ITERATIONS ***

 final structure:
================
17
 xtb: 6.5.1 (fef0646)
N            0.93437402657211        0.05063090876112       -0.06077565587345
C            2.43132235399709        0.02849494088810       -0.09067616523548
C            2.93574392391822       -0.77102509749949       -1.28406315853452
C            4.46817202670568       -0.78411252931012       -1.30281422866757
C            5.00220860650242       -1.57846476883410       -2.48596369319754
Br           6.96617467806543       -1.56141522606451       -2.46032712169198
H            0.58436856576920        0.58851359115035        0.74236105697810
H            0.57121059524449       -0.91013245516788        0.00095522221888
H            0.57320305331395        0.47495068379168       -0.92580290445880
H            2.78771788550036       -0.41506978256113        0.84014260413551
H            2.78980347484780        1.05741527224775       -0.14549322196873
H            2.57303689806036       -0.32807185461541       -2.21371003809840
H            2.57249801015690       -1.79910784027563       -1.22840996394846
H            4.84483003634452       -1.22600160098303       -0.37892479738146
H            4.84529421206220        0.23814756681692       -1.36171136032164
H            4.69823742459671       -1.14340269712006       -3.43682662820705
H            4.69812422834256       -2.62322911122455       -2.44331994574741

          :  Hamiltonian                  GFN2-xTB          :
         :: total energy             -20.733386099885 Eh    ::
         :: gradient norm              0.000712266157 Eh/a0 ::
         :: HOMO-LUMO gap              4.918831683709 eV    ::
         :: SCC energy               -20.969747511473 Eh    ::
         :: -> dispersion             -0.008711622987 Eh    ::
         :: repulsion energy           0.236380119694 Eh    ::

    * Orbital Energies and Occupations

         #    Occupation            Energy/Eh            Energy/eV
      -------------------------------------------------------------
         1        2.0000           -0.9231553             -25.1203
       ...           ...                  ...                  ...
         7        2.0000           -0.7580432             -20.6274
         8        2.0000           -0.7423116             -20.1993
         9        2.0000           -0.7096800             -19.3114
        10        2.0000           -0.7053164             -19.1926
        11        2.0000           -0.6715304             -18.2733
        12        2.0000           -0.6600591             -17.9611
        13        2.0000           -0.6441052             -17.5270
        14        2.0000           -0.6252552             -17.0141
        15        2.0000           -0.6111547             -16.6304
        16        2.0000           -0.5839245             -15.8894
        17        2.0000           -0.5814428             -15.8219
        18        2.0000           -0.4970579             -13.5256
        19        2.0000           -0.4947003             -13.4615 (HOMO)
        20                         -0.3139366              -8.5426 (LUMO)
        21                         -0.2774092              -7.5487
        22                         -0.1739359              -4.7330
        23                         -0.1187762              -3.2321
        24                         -0.1152819              -3.1370
        25                         -0.0818187              -2.2264
        26                         -0.0693555              -1.8873
        27                         -0.0515999              -1.4041
        28                         -0.0486747              -1.3245
        29                         -0.0336726              -0.9163
        30                         -0.0321546              -0.8750
       ...                                ...                  ...
        40                          0.2741048               7.4588
      -------------------------------------------------------------
                  HL-Gap            0.1807637 Eh            4.9188 eV

     #   Z          covCN         q      C6AA      α(0)
     1   7 N        3.483    -0.127    23.753     7.239
     2   6 C        3.732    -0.035    21.286     6.586
     3   6 C        3.803    -0.083    22.080     6.690
     4   6 C        3.872    -0.069    21.766     6.634
     5   6 C        3.740     0.012    20.458     6.453
     6  35 Br       0.985    -0.162   189.499    22.195
     7   1 H        0.859     0.274     0.797     1.398
     8   1 H        0.859     0.274     0.796     1.397
     9   1 H        0.859     0.274     0.796     1.397
    10   1 H        0.924     0.112     1.680     2.027
    11   1 H        0.924     0.112     1.680     2.027
    12   1 H        0.924     0.066     2.129     2.282
    13   1 H        0.924     0.066     2.129     2.282
    14   1 H        0.924     0.071     2.076     2.253
    15   1 H        0.924     0.071     2.076     2.253
    16   1 H        0.926     0.072     2.063     2.246
    17   1 H        0.926     0.072     2.063     2.246

Wiberg/Mayer (AO) data.
largest (>0.10) Wiberg bond orders for each atom

     #   Z sym  total        # sym  WBO       # sym  WBO       # sym  WBO
 ---------------------------------------------------------------------------
     1   7 N    3.675 --     2 C    0.924     7 H    0.911     8 H    0.909
                             9 H    0.909
     2   6 C    3.885 --     3 C    1.009    10 H    0.966    11 H    0.966
                             1 N    0.924
     3   6 C    3.983 --     2 C    1.009     4 C    0.992    13 H    0.972
                            12 H    0.972
     4   6 C    3.987 --     5 C    1.015     3 C    0.992    15 H    0.974
                            14 H    0.974
     5   6 C    3.961 --     4 C    1.015     6 Br   0.981    16 H    0.976
                            17 H    0.976
     6  35 Br   1.026 --     5 C    0.981
     7   1 H    0.925 --     1 N    0.911
     8   1 H    0.925 --     1 N    0.909
     9   1 H    0.925 --     1 N    0.909
    10   1 H    0.987 --     2 C    0.966
    11   1 H    0.987 --     2 C    0.966
    12   1 H    0.996 --     3 C    0.972
    13   1 H    0.996 --     3 C    0.972
    14   1 H    0.995 --     4 C    0.974
    15   1 H    0.995 --     4 C    0.974
    16   1 H    0.995 --     5 C    0.976
    17   1 H    0.995 --     5 C    0.976
 ---------------------------------------------------------------------------

molecular dipole:
                 x           y           z       tot (Debye)
 q only:        1.846      -0.043      -0.321
   full:        1.212      -0.077      -0.372       3.229

           -------------------------------------------------
          | TOTAL ENERGY              -20.733386099885 Eh   |
          | GRADIENT NORM               0.000712266157 Eh/α |
          | HOMO-LUMO GAP               4.918831683709 eV   |
           -------------------------------------------------

 * finished run on 2023/01/23 at 20:01:46.423
