   * xtb version 6.5.1 (fef0646) compiled by 'conda@b96dff2e9fd6' on 2023-01-04
          program call               : xtb init.xyz --opt -c 1 -u 0 -P 16 --alpb water

   ID    Z sym.   atoms
    1    7 N      1
    2    6 C      2-13
    3    1 H      14-27

      * Solvation model:               ALPB
        Solvent                        water
        Solvent mass                       1.8000E+01 g/mol
          :  Hamiltonian                  GFN2-xTB          :
 * total energy  :   -35.4214897 Eh     change       -0.3557687E-09 Eh
 * total energy  :   -35.4252897 Eh     change       -0.3800066E-02 Eh
 * total energy  :   -35.4259464 Eh     change       -0.6566923E-03 Eh
 * total energy  :   -35.4260215 Eh     change       -0.7504109E-04 Eh
 * total energy  :   -35.4260646 Eh     change       -0.4309753E-04 Eh
 * total energy  :   -35.4260792 Eh     change       -0.1458638E-04 Eh
 * total energy  :   -35.4260994 Eh     change       -0.2024453E-04 Eh
 * total energy  :   -35.4261234 Eh     change       -0.2402129E-04 Eh
 * total energy  :   -35.4261424 Eh     change       -0.1898596E-04 Eh
 * total energy  :   -35.4261677 Eh     change       -0.2529912E-04 Eh
 * total energy  :   -35.4263456 Eh     change       -0.2524732E-04 Eh
 * total energy  :   -35.4263737 Eh     change       -0.2813749E-04 Eh
 * total energy  :   -35.4264028 Eh     change       -0.2906843E-04 Eh
 * total energy  :   -35.4264437 Eh     change       -0.4091245E-04 Eh
 * total energy  :   -35.4264599 Eh     change       -0.1618562E-04 Eh
 * total energy  :   -35.4264729 Eh     change       -0.1304091E-04 Eh
 * total energy  :   -35.4264828 Eh     change       -0.9888014E-05 Eh
 * total energy  :   -35.4264900 Eh     change       -0.7166731E-05 Eh
 * total energy  :   -35.4264941 Eh     change       -0.4107568E-05 Eh
   *** GEOMETRY OPTIMIZATION CONVERGED AFTER 25 ITERATIONS ***

 final structure:
================
27
 xtb: 6.5.1 (fef0646)
N            2.69423501029001       -1.52544503483186       -2.12151403486750
C            2.42331361803802       -0.58851801847208       -1.00391327115052
C            3.01962849660809       -1.13014961068919        0.29444831580827
C            4.52517011698829       -1.18306611168803        0.23645651944326
C            5.26871586217685       -0.03452220724815        0.33728555340650
C            6.67591864700660       -0.06400015887917        0.27490559585139
C            7.45466698088351        1.10759404643200        0.38554258738638
C            8.81856068173792        1.04486493936412        0.33216006378800
C            9.46750115225300       -0.18962400111671        0.16299551773177
C            8.74141123261067       -1.34195358999859        0.05056093876721
C            7.33229784916479       -1.31145109120167        0.10357980137683
C            6.54956612334725       -2.48003289984934        0.00194940556549
C            5.18550437210610       -2.41604104451923        0.06183352098831
H            2.34055011599278       -1.15263139592253       -3.01004306926636
H            2.24535993523922       -2.43126006210931       -1.94150282604237
H            3.70688298749397       -1.67831125043271       -2.20336785059299
H            1.34692792162474       -0.46492107708184       -0.89190676226179
H            2.86863616894343        0.37871698231987       -1.23493403814544
H            2.62371729086772       -2.12349200637577        0.50472185502342
H            2.71722456408856       -0.47391508096124        1.11004344111496
H            4.78552908468205        0.92053138204129        0.48466857232216
H            6.95621495693717        2.05709883535921        0.51732146789346
H            9.41136859917121        1.94370306460327        0.41999703432924
H           10.54682371691568       -0.21809798055889        0.12466229568491
H            9.23876354684398       -2.29304621349060       -0.07731084050324
H            7.05208938542342       -3.42856389325611       -0.11979128696009
H            4.60797158256518       -3.32657652143548        0.00268149330867

          :  Hamiltonian                  GFN2-xTB          :
         :: total energy             -35.426494082529 Eh    ::
         :: gradient norm              0.000369255068 Eh/a0 ::
         :: HOMO-LUMO gap              3.203169329455 eV    ::
         :: SCC energy               -36.068974297987 Eh    ::
         :: -> dispersion             -0.023873632656 Eh    ::
         :: -> Gsolv                  -0.118324224579 Eh    ::
         :: repulsion energy           0.642390623511 Eh    ::

    * Orbital Energies and Occupations

         #    Occupation            Energy/Eh            Energy/eV
      -------------------------------------------------------------
         1        2.0000           -0.6930039             -18.8576
       ...           ...                  ...                  ...
        21        2.0000           -0.4850835             -13.1998
        22        2.0000           -0.4789839             -13.0338
        23        2.0000           -0.4767542             -12.9731
        24        2.0000           -0.4717288             -12.8364
        25        2.0000           -0.4598117             -12.5121
        26        2.0000           -0.4510999             -12.2751
        27        2.0000           -0.4482576             -12.1977
        28        2.0000           -0.4387900             -11.9401
        29        2.0000           -0.4255089             -11.5787
        30        2.0000           -0.4177176             -11.3667
        31        2.0000           -0.4136647             -11.2564
        32        2.0000           -0.3992776             -10.8649
        33        2.0000           -0.3784052             -10.2969 (HOMO)
        34                         -0.2606909              -7.0938 (LUMO)
        35                         -0.2295044              -6.2451
        36                         -0.1897522              -5.1634
        37                         -0.1476391              -4.0175
        38                         -0.0582114              -1.5840
        39                         -0.0460239              -1.2524
        40                          0.0589714               1.6047
        41                          0.0788736               2.1463
        42                          0.1006281               2.7382
        43                          0.1113722               3.0306
        44                          0.1159186               3.1543
       ...                                ...                  ...
        66                          0.6958543              18.9352
      -------------------------------------------------------------
                  HL-Gap            0.1177143 Eh            3.2032 eV

     #   Z          covCN         q      C6AA      α(0)
     1   7 N        3.485    -0.155    24.332     7.326
     2   6 C        3.732    -0.037    21.320     6.591
     3   6 C        3.809    -0.095    22.300     6.722
     4   6 C        2.966     0.008    27.829     8.653
     5   6 C        2.923    -0.052    29.290     8.875
     6   6 C        2.986     0.010    27.797     8.648
     7   6 C        2.918    -0.042    29.053     8.839
     8   6 C        2.916    -0.035    28.864     8.810
     9   6 C        2.916    -0.035    28.868     8.811
    10   6 C        2.918    -0.041    29.011     8.832
    11   6 C        2.987     0.007    27.852     8.657
    12   6 C        2.916    -0.041    29.017     8.833
    13   6 C        2.919    -0.053    29.319     8.879
    14   1 H        0.859     0.317     0.665     1.277
    15   1 H        0.859     0.310     0.685     1.297
    16   1 H        0.859     0.295     0.730     1.338
    17   1 H        0.925     0.117     1.641     2.003
    18   1 H        0.925     0.109     1.702     2.040
    19   1 H        0.925     0.081     1.971     2.195
    20   1 H        0.925     0.081     1.965     2.192
    21   1 H        0.926     0.048     2.341     2.392
    22   1 H        0.926     0.038     2.475     2.460
    23   1 H        0.926     0.024     2.672     2.556
    24   1 H        0.926     0.022     2.709     2.574
    25   1 H        0.926     0.029     2.602     2.522
    26   1 H        0.926     0.032     2.557     2.501
    27   1 H        0.926     0.057     2.233     2.337

Wiberg/Mayer (AO) data.
largest (>0.10) Wiberg bond orders for each atom

     #   Z sym  total        # sym  WBO       # sym  WBO       # sym  WBO
 ---------------------------------------------------------------------------
     1   7 N    3.657 --     2 C    0.965    16 H    0.894    15 H    0.889
                            14 H    0.886
     2   6 C    3.924 --     3 C    0.999    18 H    0.965     1 N    0.965
                            17 H    0.965
     3   6 C    3.988 --     4 C    1.009     2 C    0.999    19 H    0.968
                            20 H    0.959
     4   6 C    3.988 --     5 C    1.521    13 C    1.299     3 C    1.009
     5   6 C    3.990 --     4 C    1.521     6 C    1.286    21 H    0.965
                            12 C    0.117
     6   6 C    3.990 --     5 C    1.286     7 C    1.275    11 C    1.250
     7   6 C    3.989 --     8 C    1.560     6 C    1.275    22 H    0.968
                            10 C    0.119
     8   6 C    3.992 --     7 C    1.560     9 C    1.319    23 H    0.971
     9   6 C    3.990 --    10 C    1.559     8 C    1.319    24 H    0.972
    10   6 C    3.991 --     9 C    1.559    11 C    1.278    25 H    0.969
                             7 C    0.119
    11   6 C    3.990 --    12 C    1.281    10 C    1.278     6 C    1.250
    12   6 C    3.991 --    13 C    1.555    11 C    1.281    26 H    0.968
                             5 C    0.117
    13   6 C    3.988 --    12 C    1.555     4 C    1.299    27 H    0.966
    14   1 H    0.899 --     1 N    0.886
    15   1 H    0.904 --     1 N    0.889
    16   1 H    0.913 --     1 N    0.894
    17   1 H    0.986 --     2 C    0.965
    18   1 H    0.988 --     2 C    0.965
    19   1 H    0.993 --     3 C    0.968
    20   1 H    0.993 --     3 C    0.959
    21   1 H    0.997 --     5 C    0.965
    22   1 H    0.998 --     7 C    0.968
    23   1 H    0.999 --     8 C    0.971
    24   1 H    0.999 --     9 C    0.972
    25   1 H    0.999 --    10 C    0.969
    26   1 H    0.998 --    12 C    0.968
    27   1 H    0.996 --    13 C    0.966
 ---------------------------------------------------------------------------

molecular dipole:
                 x           y           z       tot (Debye)
 q only:        4.493      -2.802      -3.735
   full:        4.885      -2.816      -3.733      17.188

           -------------------------------------------------
          | TOTAL ENERGY              -35.426494082529 Eh   |
          | GRADIENT NORM               0.000369255068 Eh/α |
          | HOMO-LUMO GAP               3.203169329455 eV   |
           -------------------------------------------------

 * finished run on 2023/01/24 at 15:29:11.645
