   * xtb version 6.5.1 (fef0646) compiled by 'conda@b96dff2e9fd6' on 2023-01-04
          program call               : xtb init.xyz --opt -c 1 -u 0 -P 16 --alpb water

   ID    Z sym.   atoms
    1    7 N      1
    2    6 C      2, 3, 5-20
    3    8 O      4
    4    1 H      21-36

      * Solvation model:               ALPB
        Solvent                        water
        Solvent mass                       1.8000E+01 g/mol
          :  Hamiltonian                  GFN2-xTB          :
 * total energy  :   -53.3866091 Eh     change       -0.4694414E-09 Eh
 * total energy  :   -53.3928069 Eh     change       -0.6197809E-02 Eh
 * total energy  :   -53.3942046 Eh     change       -0.1397710E-02 Eh
 * total energy  :   -53.3944758 Eh     change       -0.2711754E-03 Eh
 * total energy  :   -53.3947203 Eh     change       -0.2444592E-03 Eh
 * total energy  :   -53.3948412 Eh     change       -0.1209817E-03 Eh
 * total energy  :   -53.3949461 Eh     change       -0.1049027E-03 Eh
 * total energy  :   -53.3950120 Eh     change       -0.6587749E-04 Eh
 * total energy  :   -53.3950373 Eh     change       -0.2525038E-04 Eh
 * total energy  :   -53.3950614 Eh     change       -0.2416851E-04 Eh
 * total energy  :   -53.3950852 Eh     change       -0.2372211E-04 Eh
 * total energy  :   -53.3950991 Eh     change       -0.1389988E-04 Eh
 * total energy  :   -53.3951087 Eh     change       -0.9675080E-05 Eh
 * total energy  :   -53.3951086 Eh     change        0.1565378E-06 Eh
 * total energy  :   -53.3951113 Eh     change       -0.2752719E-05 Eh
   *** GEOMETRY OPTIMIZATION CONVERGED AFTER 15 ITERATIONS ***

 final structure:
================
36
 xtb: 6.5.1 (fef0646)
N            4.01621983921851       -1.03720206300958        1.15595181239700
C            2.94134791685966       -0.10934913646522        0.73677979207085
C            3.40763147936865        1.32730272453288        0.94329547530319
O            4.56777943001533        1.48038018796357        0.12817477174536
C            5.16965218014290        2.69706645079723        0.03787321682376
C            6.24647842242629        2.78890035884629       -0.86789572501500
C            6.64495986149507        1.69153565048144       -1.68473538939881
C            7.68774376119388        1.79526116493079       -2.54123813227338
C            6.94911315092134        4.01087958741823       -0.97650016464578
C            6.56308961687863        5.12969574841889       -0.19706918648359
C            5.47975344637035        4.99901955938616        0.66912261956744
C            4.79499500369195        3.80399295675964        0.78853941952632
C            7.29427227196825        6.34631860069193       -0.32790484189708
C            8.34392157108832        6.44530938163869       -1.17560439497260
C            8.75636098763880        5.33726406307653       -1.97460722849743
C            9.83618641101076        5.41776109140078       -2.85474220574834
C           10.20826021793409        4.32593356102437       -3.61908800675306
C            9.51600953920542        3.13303476904665       -3.52704153549543
C            8.43021320342494        3.00563771529585       -2.65811385054308
C            8.04376893141721        4.11693191992262       -1.86893871776393
H            3.79301044541849       -2.00571419509429        0.90055421365762
H            4.17156554629458       -0.98579960019602        2.16987089731735
H            4.88421972540469       -0.75271778949263        0.68309332623895
H            2.03580248459234       -0.28946688365231        1.31347634979319
H            2.73294747824728       -0.26063043809529       -0.32234273012768
H            3.65797492498182        1.51676684547458        1.99327014990858
H            2.62344513238369        2.02466135181175        0.63386027082953
H            6.08186597350668        0.77559543986668       -1.61943451681115
H            7.98063786784387        0.96097834365250       -3.16154450457566
H            5.17445191672437        5.84886689412090        1.26149292448088
H            3.96663142699176        3.75403796729043        1.47619609439212
H            6.98809124310772        7.19211853382229        0.27137180154547
H            8.89503630778300        7.37042523653637       -1.26851286625063
H           10.38257979743151        6.34674948257025       -2.93515587618767
H           11.04735295621733        4.40863382307041       -4.29472258505112
H            9.81278953080075        2.28764069615686       -4.13072067710667

          :  Hamiltonian                  GFN2-xTB          :
         :: total energy             -53.395111337597 Eh    ::
         :: gradient norm              0.000262723527 Eh/a0 ::
         :: HOMO-LUMO gap              2.314198830891 eV    ::
         :: SCC energy               -54.314738584461 Eh    ::
         :: -> dispersion             -0.039506938882 Eh    ::
         :: -> Gsolv                  -0.126381919939 Eh    ::
         :: repulsion energy           0.919650065965 Eh    ::

    * Orbital Energies and Occupations

         #    Occupation            Energy/Eh            Energy/eV
      -------------------------------------------------------------
         1        2.0000           -0.7294238             -19.8486
       ...           ...                  ...                  ...
        37        2.0000           -0.4628475             -12.5947
        38        2.0000           -0.4589446             -12.4885
        39        2.0000           -0.4567429             -12.4286
        40        2.0000           -0.4516361             -12.2896
        41        2.0000           -0.4404799             -11.9861
        42        2.0000           -0.4352905             -11.8449
        43        2.0000           -0.4286019             -11.6629
        44        2.0000           -0.4101427             -11.1606
        45        2.0000           -0.4089713             -11.1287
        46        2.0000           -0.4049456             -11.0191
        47        2.0000           -0.4044583             -11.0059
        48        2.0000           -0.3907612             -10.6332
        49        2.0000           -0.3584621              -9.7543 (HOMO)
        50                         -0.2734169              -7.4401 (LUMO)
        51                         -0.2411094              -6.5609
        52                         -0.2201766              -5.9913
        53                         -0.1997315              -5.4350
        54                         -0.1794067              -4.8819
        55                         -0.1247944              -3.3958
        56                         -0.0985843              -2.6826
        57                         -0.0546039              -1.4858
        58                         -0.0251870              -0.6854
        59                          0.0037940               0.1032
        60                          0.0539932               1.4692
       ...                                ...                  ...
        96                          0.7326398              19.9361
      -------------------------------------------------------------
                  HL-Gap            0.0850452 Eh            2.3142 eV

     #   Z          covCN         q      C6AA      α(0)
     1   7 N        3.486    -0.154    24.328     7.326
     2   6 C        3.731    -0.045    21.473     6.614
     3   6 C        3.689     0.049    19.935     6.390
     4   8 O        1.705    -0.271    18.489     5.805
     5   6 C        2.859     0.129    25.169     8.223
     6   6 C        2.982    -0.013    28.337     8.732
     7   6 C        2.913    -0.042    29.034     8.836
     8   6 C        2.914    -0.044    29.092     8.845
     9   6 C        2.997    -0.001    28.037     8.686
    10   6 C        2.981    -0.001    28.054     8.688
    11   6 C        2.921    -0.043    29.072     8.842
    12   6 C        2.911    -0.076    29.901     8.967
    13   6 C        2.913    -0.041    29.018     8.833
    14   6 C        2.913    -0.043    29.068     8.841
    15   6 C        2.982     0.007    27.853     8.657
    16   6 C        2.920    -0.043    29.071     8.842
    17   6 C        2.914    -0.036    28.888     8.814
    18   6 C        2.920    -0.045    29.108     8.847
    19   6 C        2.982     0.008    27.825     8.653
    20   6 C        2.998     0.001    27.998     8.680
    21   1 H        0.859     0.324     0.647     1.260
    22   1 H        0.859     0.314     0.674     1.286
    23   1 H        0.859     0.307     0.693     1.304
    24   1 H        0.925     0.131     1.529     1.934
    25   1 H        0.925     0.132     1.524     1.930
    26   1 H        0.924     0.079     1.995     2.209
    27   1 H        0.924     0.076     2.023     2.225
    28   1 H        0.926     0.068     2.107     2.270
    29   1 H        0.926     0.041     2.439     2.442
    30   1 H        0.926     0.037     2.495     2.470
    31   1 H        0.926     0.055     2.254     2.348
    32   1 H        0.926     0.031     2.579     2.511
    33   1 H        0.926     0.025     2.661     2.551
    34   1 H        0.926     0.025     2.656     2.549
    35   1 H        0.926     0.027     2.630     2.536
    36   1 H        0.926     0.034     2.525     2.485

Wiberg/Mayer (AO) data.
largest (>0.10) Wiberg bond orders for each atom

     #   Z sym  total        # sym  WBO       # sym  WBO       # sym  WBO
 ---------------------------------------------------------------------------
     1   7 N    3.654 --     2 C    0.976    23 H    0.887    22 H    0.887
                            21 H    0.883
     2   6 C    3.928 --     3 C    1.008     1 N    0.976    24 H    0.961
                            25 H    0.960
     3   6 C    3.931 --     2 C    1.008    27 H    0.962    26 H    0.961
                             4 O    0.954
     4   8 O    2.214 --     5 C    1.071     3 C    0.954
     5   6 C    3.917 --    12 C    1.379     6 C    1.276     4 O    1.071
     6   6 C    3.987 --     5 C    1.276     9 C    1.267     7 C    1.212
     7   6 C    3.988 --     8 C    1.645     6 C    1.212    28 H    0.964
     8   6 C    3.989 --     7 C    1.645    19 C    1.204    29 H    0.967
     9   6 C    3.990 --     6 C    1.267    20 C    1.251    10 C    1.244
    10   6 C    3.990 --    11 C    1.359     9 C    1.244    13 C    1.200
    11   6 C    3.956 --    12 C    1.443    10 C    1.359    30 H    0.969
    12   6 C    3.979 --    11 C    1.443     5 C    1.379    31 H    0.963
    13   6 C    3.991 --    14 C    1.655    10 C    1.200    32 H    0.968
    14   6 C    3.983 --    13 C    1.655    15 C    1.198    33 H    0.968
    15   6 C    3.990 --    16 C    1.360    20 C    1.252    14 C    1.198
    16   6 C    3.954 --    17 C    1.439    15 C    1.360    34 H    0.969
    17   6 C    3.985 --    18 C    1.447    16 C    1.439    35 H    0.971
    18   6 C    3.954 --    17 C    1.447    19 C    1.351    36 H    0.969
    19   6 C    3.989 --    18 C    1.351    20 C    1.255     8 C    1.204
    20   6 C    3.990 --    19 C    1.255    15 C    1.252     9 C    1.251
    21   1 H    0.895 --     1 N    0.883
    22   1 H    0.902 --     1 N    0.887
    23   1 H    0.906 --     1 N    0.887
    24   1 H    0.982 --     2 C    0.961
    25   1 H    0.983 --     2 C    0.960
    26   1 H    0.993 --     3 C    0.961
    27   1 H    0.993 --     3 C    0.962
    28   1 H    0.994 --     7 C    0.964
    29   1 H    0.997 --     8 C    0.967
    30   1 H    0.998 --    11 C    0.969
    31   1 H    0.996 --    12 C    0.963
    32   1 H    0.998 --    13 C    0.968
    33   1 H    0.998 --    14 C    0.968
    34   1 H    0.999 --    16 C    0.969
    35   1 H    0.999 --    17 C    0.971
    36   1 H    0.998 --    18 C    0.969
 ---------------------------------------------------------------------------

molecular dipole:
                 x           y           z       tot (Debye)
 q only:        6.473      -2.341       2.638
   full:        6.753      -1.946       2.618      19.062

           -------------------------------------------------
          | TOTAL ENERGY              -53.395111337597 Eh   |
          | GRADIENT NORM               0.000262723527 Eh/α |
          | HOMO-LUMO GAP               2.314198830891 eV   |
           -------------------------------------------------

 * finished run on 2023/01/24 at 16:47:56.191
