   * xtb version 6.5.1 (fef0646) compiled by 'conda@b96dff2e9fd6' on 2023-01-04
          program call               : xtb init.xyz --opt -c 1 -u 0 -P 16

   ID    Z sym.   atoms
    1    7 N      1
    2    6 C      2-7, 9, 10
    3   35 Br     8
    4    1 H      11-21

          :  Hamiltonian                  GFN2-xTB          :
 * total energy  :   -29.2934964 Eh     change       -0.2126335E-09 Eh
 * total energy  :   -29.2953533 Eh     change       -0.1856872E-02 Eh
 * total energy  :   -29.2956899 Eh     change       -0.3365838E-03 Eh
 * total energy  :   -29.2958371 Eh     change       -0.1472874E-03 Eh
 * total energy  :   -29.2959736 Eh     change       -0.1364410E-03 Eh
 * total energy  :   -29.2960888 Eh     change       -0.1152552E-03 Eh
 * total energy  :   -29.2962313 Eh     change       -0.1424217E-03 Eh
 * total energy  :   -29.2964067 Eh     change       -0.1754215E-03 Eh
 * total energy  :   -29.2965695 Eh     change       -0.1628426E-03 Eh
 * total energy  :   -29.2966882 Eh     change       -0.1187001E-03 Eh
 * total energy  :   -29.2974188 Eh     change       -0.1316621E-03 Eh
 * total energy  :   -29.2975359 Eh     change       -0.1170909E-03 Eh
 * total energy  :   -29.2976112 Eh     change       -0.7533266E-04 Eh
 * total energy  :   -29.2976410 Eh     change       -0.2981932E-04 Eh
 * total energy  :   -29.2976707 Eh     change       -0.2973123E-04 Eh
 * total energy  :   -29.2977023 Eh     change       -0.3151485E-04 Eh
 * total energy  :   -29.2977140 Eh     change       -0.1170197E-04 Eh
 * total energy  :   -29.2977245 Eh     change       -0.1051409E-04 Eh
 * total energy  :   -29.2977259 Eh     change       -0.1417986E-05 Eh
   *** GEOMETRY OPTIMIZATION CONVERGED AFTER 26 ITERATIONS ***

 final structure:
================
21
 xtb: 6.5.1 (fef0646)
N            2.99745375860538        0.62266216813993       -1.20276260989983
C            2.44323896730256        1.59583780380200       -0.21461658090381
C            2.91484261777631        1.17992240039134        1.17972102257630
C            4.42180954468291        1.13884408361717        1.19868356571841
C            5.15760541246880        2.28499074575698        1.48129758898716
C            6.53804303131967        2.27050569400742        1.42553285207752
C            7.20002999125339        1.10025771864568        1.07394148039628
Br           9.09977316594287        1.07778872557304        0.97633837605170
C            6.48487394254510       -0.05568106300099        0.79717339406029
C            5.10055640510400       -0.03071518026073        0.85305253597380
H            3.00390657301882        0.99250236358597       -2.15888963872878
H            2.46265372808949       -0.25371702986286       -1.18991209365883
H            3.97331103855664        0.41423450488082       -0.87994802651575
H            1.35601996665350        1.61329101723339       -0.28359340183194
H            2.83140394046160        2.58660054329611       -0.45438432197111
H            2.50011221993066        0.20560576473867        1.44198073792947
H            2.54697295661274        1.90494015061861        1.90404992183504
H            4.64749086610067        3.19370251239444        1.76197230147926
H            7.10261520684405        3.15913316385447        1.65764061588922
H            7.00547262669312       -0.96700470713077        0.55059397648690
H            4.56040404003728       -0.95755138028017        0.70688830404793

          :  Hamiltonian                  GFN2-xTB          :
         :: total energy             -29.297725895683 Eh    ::
         :: gradient norm              0.000355565918 Eh/a0 ::
         :: HOMO-LUMO gap              3.498659654700 eV    ::
         :: SCC energy               -29.732452775718 Eh    ::
         :: -> dispersion             -0.017480734440 Eh    ::
         :: repulsion energy           0.434642518421 Eh    ::

    * Orbital Energies and Occupations

         #    Occupation            Energy/Eh            Energy/eV
      -------------------------------------------------------------
         1        2.0000           -0.9333245             -25.3971
       ...           ...                  ...                  ...
        15        2.0000           -0.6598392             -17.9551
        16        2.0000           -0.6506628             -17.7054
        17        2.0000           -0.6365146             -17.3204
        18        2.0000           -0.6263676             -17.0443
        19        2.0000           -0.6229017             -16.9500
        20        2.0000           -0.6173745             -16.7996
        21        2.0000           -0.6137541             -16.7011
        22        2.0000           -0.5704937             -15.5239
        23        2.0000           -0.5674884             -15.4421
        24        2.0000           -0.5648128             -15.3693
        25        2.0000           -0.5530328             -15.0488
        26        2.0000           -0.5090586             -13.8522
        27        2.0000           -0.5051343             -13.7454 (HOMO)
        28                         -0.3765609             -10.2467 (LUMO)
        29                         -0.3735822             -10.1657
        30                         -0.3036023              -8.2614
        31                         -0.2561518              -6.9702
        32                         -0.2503784              -6.8131
        33                         -0.1536524              -4.1811
        34                         -0.0995739              -2.7095
        35                         -0.0918014              -2.4980
        36                         -0.0700849              -1.9071
        37                         -0.0644600              -1.7540
        38                         -0.0565693              -1.5393
       ...                                ...                  ...
        56                          0.5051913              13.7470
      -------------------------------------------------------------
                  HL-Gap            0.1285734 Eh            3.4987 eV

     #   Z          covCN         q      C6AA      α(0)
     1   7 N        3.483    -0.140    24.011     7.278
     2   6 C        3.734    -0.031    21.213     6.574
     3   6 C        3.809    -0.092    22.255     6.715
     4   6 C        2.970    -0.007    28.188     8.709
     5   6 C        2.923    -0.036    28.892     8.815
     6   6 C        2.985    -0.028    28.687     8.786
     7   6 C        2.913     0.091    25.977     8.358
     8  35 Br       1.060    -0.118   188.291    22.125
     9   6 C        2.987    -0.035    28.866     8.813
    10   6 C        2.923    -0.061    29.528     8.911
    11   1 H        0.859     0.265     0.829     1.426
    12   1 H        0.859     0.266     0.823     1.421
    13   1 H        0.857     0.278     0.783     1.386
    14   1 H        0.925     0.107     1.722     2.052
    15   1 H        0.924     0.106     1.728     2.056
    16   1 H        0.924     0.075     2.036     2.232
    17   1 H        0.925     0.099     1.798     2.097
    18   1 H        0.926     0.062     2.171     2.304
    19   1 H        0.926     0.081     1.972     2.196
    20   1 H        0.926     0.074     2.037     2.232
    21   1 H        0.925     0.044     2.395     2.420

Wiberg/Mayer (AO) data.
largest (>0.10) Wiberg bond orders for each atom

     #   Z sym  total        # sym  WBO       # sym  WBO       # sym  WBO
 ---------------------------------------------------------------------------
     1   7 N    3.668 --     2 C    0.933    11 H    0.916    12 H    0.914
                            13 H    0.854
     2   6 C    3.896 --     3 C    0.995    15 H    0.968    14 H    0.967
                             1 N    0.933
     3   6 C    3.979 --     4 C    1.006     2 C    0.995    16 H    0.968
                            17 H    0.959
     4   6 C    3.987 --     5 C    1.401    10 C    1.389     3 C    1.006
     5   6 C    3.990 --     6 C    1.455     4 C    1.401    18 H    0.965
                             9 C    0.107
     6   6 C    3.987 --     5 C    1.455     7 C    1.391    19 H    0.964
                            10 C    0.103
     7   6 C    3.949 --     9 C    1.403     6 C    1.391     8 Br   1.025
     8  35 Br   1.182 --     7 C    1.025
     9   6 C    3.987 --    10 C    1.433     7 C    1.403    20 H    0.965
                             5 C    0.107
    10   6 C    3.990 --     9 C    1.433     4 C    1.389    21 H    0.960
                             6 C    0.103
    11   1 H    0.930 --     1 N    0.916
    12   1 H    0.929 --     1 N    0.914
    13   1 H    0.923 --     1 N    0.854
    14   1 H    0.987 --     2 C    0.967
    15   1 H    0.989 --     2 C    0.968
    16   1 H    0.994 --     3 C    0.968
    17   1 H    0.990 --     3 C    0.959
    18   1 H    0.996 --     5 C    0.965
    19   1 H    0.993 --     6 C    0.964
    20   1 H    0.994 --     9 C    0.965
    21   1 H    0.998 --    10 C    0.960
 ---------------------------------------------------------------------------

molecular dipole:
                 x           y           z       tot (Debye)
 q only:        5.485       1.662      -1.388
   full:        5.461       1.540      -1.442      14.880

           -------------------------------------------------
          | TOTAL ENERGY              -29.297725895683 Eh   |
          | GRADIENT NORM               0.000355565918 Eh/α |
          | HOMO-LUMO GAP               3.498659654700 eV   |
           -------------------------------------------------

 * finished run on 2023/01/23 at 13:55:38.646
