   * xtb version 6.5.1 (fef0646) compiled by 'conda@b96dff2e9fd6' on 2023-01-04
          program call               : xtb init.xyz --opt -c 0 -u 0 -P 16 --alpb water

   ID    Z sym.   atoms
    1    7 N      1
    2    6 C      2-6
    3   17 Cl     7
    4    1 H      8-19

      * Solvation model:               ALPB
        Solvent                        water
        Solvent mass                       1.8000E+01 g/mol
          :  Hamiltonian                  GFN2-xTB          :
 * total energy  :   -24.3435691 Eh     change       -0.4415455E-09 Eh
 * total energy  :   -24.3473083 Eh     change       -0.3739214E-02 Eh
 * total energy  :   -24.3482204 Eh     change       -0.9121185E-03 Eh
 * total energy  :   -24.3485633 Eh     change       -0.3428219E-03 Eh
 * total energy  :   -24.3487086 Eh     change       -0.1453672E-03 Eh
 * total energy  :   -24.3488374 Eh     change       -0.1288002E-03 Eh
 * total energy  :   -24.3489102 Eh     change       -0.7273401E-04 Eh
 * total energy  :   -24.3489330 Eh     change       -0.2287104E-04 Eh
 * total energy  :   -24.3489403 Eh     change       -0.7306791E-05 Eh
 * total energy  :   -24.3489428 Eh     change       -0.2417681E-05 Eh
   *** GEOMETRY OPTIMIZATION CONVERGED AFTER 10 ITERATIONS ***

 final structure:
================
19
 xtb: 6.5.1 (fef0646)
N            1.91420871253282       -0.04178058955071        0.18168781746230
C            0.71445755802099        0.09253940260038       -0.67816698841367
C           -0.13138856979171       -1.18619268130240       -0.61552223455050
C           -1.26222365284039       -0.84926024512696        0.35405830364212
C           -1.57695285960092        0.60031747103701        0.00202976421029
C           -0.18650796779338        1.22109050674645       -0.14710095571470
Cl           1.42064338883901       -0.59505291750928        3.14928214538282
H            2.51897832916267       -0.80258158550628       -0.13726472202285
H            1.64523159574647       -0.25723267733136        1.17750635196038
H            2.45072037654072        0.82904736339960        0.20632577853258
H            1.05202633741443        0.29248976922685       -1.69661045231558
H            0.44761786657029       -2.04213210540832       -0.27847154796024
H           -0.54603380102075       -1.40990884459844       -1.59733613088376
H           -0.89994190767318       -0.91058444585787        1.38152039339444
H           -2.12075704669556       -1.50940432886334        0.25028625331798
H           -2.17147602455403        1.09907581268922        0.76450367570574
H           -2.12008539204419        0.64189108600401       -0.94297740264164
H            0.16651853646258        1.52152001286461        0.83903186991406
H           -0.19539547927606        2.09245899648663       -0.79700191901968

          :  Hamiltonian                  GFN2-xTB          :
         :: total energy             -24.348942764894 Eh    ::
         :: gradient norm              0.000735769092 Eh/a0 ::
         :: HOMO-LUMO gap             10.115513840324 eV    ::
         :: SCC energy               -24.624516586386 Eh    ::
         :: -> dispersion             -0.012502848680 Eh    ::
         :: -> Gsolv                  -0.068691881471 Eh    ::
         :: repulsion energy           0.275502405521 Eh    ::

    * Orbital Energies and Occupations

         #    Occupation            Energy/Eh            Energy/eV
      -------------------------------------------------------------
         1        2.0000           -1.0060365             -27.3756
       ...           ...                  ...                  ...
        10        2.0000           -0.5319475             -14.4750
        11        2.0000           -0.5127986             -13.9540
        12        2.0000           -0.4993688             -13.5885
        13        2.0000           -0.4798028             -13.0561
        14        2.0000           -0.4540676             -12.3558
        15        2.0000           -0.4465522             -12.1513
        16        2.0000           -0.4367754             -11.8853
        17        2.0000           -0.4351909             -11.8421
        18        2.0000           -0.4304276             -11.7125
        19        2.0000           -0.4167623             -11.3407
        20        2.0000           -0.4023334             -10.9480
        21        2.0000           -0.4000167             -10.8850
        22        2.0000           -0.3989505             -10.8560 (HOMO)
        23                         -0.0272122              -0.7405 (LUMO)
        24                          0.0559731               1.5231
        25                          0.0583977               1.5891
        26                          0.0678740               1.8469
        27                          0.1030541               2.8042
        28                          0.1086692               2.9570
        29                          0.1174505               3.1960
        30                          0.1177622               3.2045
        31                          0.1195051               3.2519
        32                          0.1200052               3.2655
        33                          0.1357451               3.6938
       ...                                ...                  ...
        45                          0.3428787               9.3302
      -------------------------------------------------------------
                  HL-Gap            0.3717383 Eh           10.1155 eV

     #   Z          covCN         q      C6AA      α(0)
     1   7 N        3.484    -0.179    24.856     7.405
     2   6 C        3.799     0.030    20.076     6.380
     3   6 C        3.830    -0.082    22.045     6.681
     4   6 C        3.832    -0.064    21.708     6.629
     5   6 C        3.830    -0.063    21.695     6.627
     6   6 C        3.828    -0.084    22.079     6.686
     7  17 Cl       0.045    -0.948   124.911    17.010
     8   1 H        0.859     0.297     0.724     1.333
     9   1 H        0.901     0.297     0.719     1.327
    10   1 H        0.859     0.297     0.723     1.332
    11   1 H        0.924     0.095     1.829     2.115
    12   1 H        0.925     0.062     2.173     2.305
    13   1 H        0.925     0.066     2.125     2.279
    14   1 H        0.924     0.042     2.427     2.436
    15   1 H        0.925     0.032     2.563     2.503
    16   1 H        0.925     0.031     2.568     2.506
    17   1 H        0.924     0.044     2.399     2.422
    18   1 H        0.925     0.065     2.138     2.287
    19   1 H        0.925     0.063     2.164     2.301

Wiberg/Mayer (AO) data.
largest (>0.10) Wiberg bond orders for each atom

     #   Z sym  total        # sym  WBO       # sym  WBO       # sym  WBO
 ---------------------------------------------------------------------------
     1   7 N    3.640 --     2 C    0.953    10 H    0.896     8 H    0.896
                             9 H    0.830
     2   6 C    3.935 --     3 C    0.995     6 C    0.992    11 H    0.964
                             1 N    0.953
     3   6 C    3.992 --     4 C    1.008     2 C    0.995    13 H    0.975
                            12 H    0.974
     4   6 C    3.996 --     5 C    1.009     3 C    1.008    15 H    0.979
                            14 H    0.977
     5   6 C    3.997 --     4 C    1.009     6 C    1.006    16 H    0.980
                            17 H    0.979
     6   6 C    3.991 --     5 C    1.006     2 C    0.992    19 H    0.978
                            18 H    0.973
     7  17 Cl   0.101
     8   1 H    0.912 --     1 N    0.896
     9   1 H    0.912 --     1 N    0.830
    10   1 H    0.912 --     1 N    0.896
    11   1 H    0.991 --     2 C    0.964
    12   1 H    0.996 --     3 C    0.974
    13   1 H    0.996 --     3 C    0.975
    14   1 H    0.998 --     4 C    0.977
    15   1 H    0.999 --     4 C    0.979
    16   1 H    0.999 --     5 C    0.980
    17   1 H    0.998 --     5 C    0.979
    18   1 H    0.996 --     6 C    0.973
    19   1 H    0.996 --     6 C    0.978
 ---------------------------------------------------------------------------

molecular dipole:
                 x           y           z       tot (Debye)
 q only:        0.619       1.006      -5.406
   full:        0.696       0.860      -4.588      11.995

           -------------------------------------------------
          | TOTAL ENERGY              -24.348942764894 Eh   |
          | GRADIENT NORM               0.000735769092 Eh/α |
          | HOMO-LUMO GAP              10.115513840324 eV   |
           -------------------------------------------------

 * finished run on 2023/01/24 at 14:55:53.069
