   * xtb version 6.5.1 (fef0646) compiled by 'conda@b96dff2e9fd6' on 2023-01-04
          program call               : xtb init.xyz --opt -c 1 -u 0 -P 16 --alpb water

   ID    Z sym.   atoms
    1    7 N      1
    2    6 C      2-5, 7, 9, 11, 13
    3    9 F      6, 8, 10, 12, 14
    4    1 H      15-21

      * Solvation model:               ALPB
        Solvent                        water
        Solvent mass                       1.8000E+01 g/mol
          :  Hamiltonian                  GFN2-xTB          :
 * total energy  :   -46.9283648 Eh     change       -0.8240164E-10 Eh
 * total energy  :   -46.9296979 Eh     change       -0.1333170E-02 Eh
 * total energy  :   -46.9298894 Eh     change       -0.1914359E-03 Eh
 * total energy  :   -46.9298985 Eh     change       -0.9081046E-05 Eh
 * total energy  :   -46.9298998 Eh     change       -0.1328846E-05 Eh
   *** GEOMETRY OPTIMIZATION CONVERGED AFTER 5 ITERATIONS ***

 final structure:
================
21
 xtb: 6.5.1 (fef0646)
N            0.91556255072819        0.13529177936260        0.26702003333792
C            2.39382207486864        0.12739189134241        0.27666090806996
C            2.92581147331805        1.48462849271743       -0.20686122445165
C            4.42819926386332        1.49531423838471       -0.20959261492805
C            5.15748061777149        1.11233054303266       -1.33202811523291
F            4.49334369463198        0.72421231767006       -2.42829292450166
C            6.54689938893976        1.12135770758029       -1.34938879033209
F            7.21228410431035        0.75061054286644       -2.45096148493882
C            7.24517009996354        1.51713696595439       -0.21395371055112
F            8.58320281691862        1.53190728229166       -0.21761951191820
C            6.54449323098937        1.89633844053646        0.92571099628419
F            7.20747745544595        2.27703198449924        2.02532733809766
C            5.15519089470779        1.87755511951205        0.91467635263171
F            4.48805551352842        2.23951114742810        2.01805611566447
H            0.54960275980907       -0.76918081790302        0.58897446924647
H            0.56216430009232        0.31034831252647       -0.68213877418409
H            0.55493918475420        0.87166016574954        0.88679396202856
H            2.75736945649708       -0.66272736355712       -0.38069632026629
H            2.74949804120214       -0.06501389434356        1.28911815486578
H            2.58040745830150        2.27853997962949        0.45552802598445
H            2.58152561935820        1.68088516471970       -1.22228288490631

          :  Hamiltonian                  GFN2-xTB          :
         :: total energy             -46.929899783806 Eh    ::
         :: gradient norm              0.000405356462 Eh/a0 ::
         :: HOMO-LUMO gap              4.302502179646 eV    ::
         :: SCC energy               -47.339350538411 Eh    ::
         :: -> dispersion             -0.016237263047 Eh    ::
         :: -> Gsolv                  -0.141679978583 Eh    ::
         :: repulsion energy           0.409422710871 Eh    ::

    * Orbital Energies and Occupations

         #    Occupation            Energy/Eh            Energy/eV
      -------------------------------------------------------------
         1        2.0000           -0.8730019             -23.7556
       ...           ...                  ...                  ...
        27        2.0000           -0.5602915             -15.2463
        28        2.0000           -0.5484435             -14.9239
        29        2.0000           -0.5475364             -14.8992
        30        2.0000           -0.5394691             -14.6797
        31        2.0000           -0.5281403             -14.3714
        32        2.0000           -0.5141663             -13.9912
        33        2.0000           -0.5131523             -13.9636
        34        2.0000           -0.5018079             -13.6549
        35        2.0000           -0.4999645             -13.6047
        36        2.0000           -0.4933769             -13.4255
        37        2.0000           -0.4645261             -12.6404
        38        2.0000           -0.4561725             -12.4131
        39        2.0000           -0.4556100             -12.3978 (HOMO)
        40                         -0.2974959              -8.0953 (LUMO)
        41                         -0.2943954              -8.0109
        42                         -0.1698655              -4.6223
        43                         -0.0635520              -1.7293
        44                         -0.0442910              -1.2052
        45                         -0.0189432              -0.5155
        46                          0.0118591               0.3227
        47                          0.0395191               1.0754
        48                          0.0581841               1.5833
        49                          0.0673552               1.8328
        50                          0.0720107               1.9595
       ...                                ...                  ...
        63                          0.5767522              15.6942
      -------------------------------------------------------------
                  HL-Gap            0.1581140 Eh            4.3025 eV

     #   Z          covCN         q      C6AA      α(0)
     1   7 N        3.485    -0.160    24.446     7.343
     2   6 C        3.733    -0.036    21.312     6.589
     3   6 C        3.807    -0.089    22.198     6.707
     4   6 C        2.965     0.001    28.008     8.681
     5   6 C        2.788     0.156    24.602     8.125
     6   9 F        0.787    -0.176    10.989     3.916
     7   6 C        2.774     0.148    24.765     8.151
     8   9 F        0.787    -0.191    11.143     3.943
     9   6 C        2.779     0.150    24.725     8.144
    10   9 F        0.787    -0.192    11.157     3.946
    11   6 C        2.774     0.148    24.765     8.151
    12   9 F        0.787    -0.191    11.142     3.943
    13   6 C        2.788     0.156    24.604     8.125
    14   9 F        0.787    -0.176    10.987     3.915
    15   1 H        0.859     0.324     0.645     1.258
    16   1 H        0.859     0.318     0.663     1.276
    17   1 H        0.859     0.318     0.663     1.276
    18   1 H        0.924     0.122     1.594     1.974
    19   1 H        0.924     0.123     1.593     1.974
    20   1 H        0.925     0.123     1.586     1.969
    21   1 H        0.925     0.123     1.588     1.971

Wiberg/Mayer (AO) data.
largest (>0.10) Wiberg bond orders for each atom

     #   Z sym  total        # sym  WBO       # sym  WBO       # sym  WBO
 ---------------------------------------------------------------------------
     1   7 N    3.649 --     2 C    0.981    17 H    0.884    16 H    0.884
                            15 H    0.881
     2   6 C    3.929 --     3 C    0.984     1 N    0.981    18 H    0.964
                            19 H    0.964
     3   6 C    3.963 --     4 C    1.010     2 C    0.984    21 H    0.956
                            20 H    0.955
     4   6 C    3.970 --     5 C    1.355    13 C    1.355     3 C    1.010
     5   6 C    3.897 --     4 C    1.355     7 C    1.344     6 F    0.993
     6   9 F    1.135 --     5 C    0.993
     7   6 C    3.890 --     5 C    1.344     9 C    1.342     8 F    0.984
     8   9 F    1.124 --     7 C    0.984
     9   6 C    3.890 --     7 C    1.342    11 C    1.342    10 F    0.984
    10   9 F    1.126 --     9 C    0.984
    11   6 C    3.890 --    13 C    1.345     9 C    1.342    12 F    0.984
    12   9 F    1.124 --    11 C    0.984
    13   6 C    3.897 --     4 C    1.355    11 C    1.345    14 F    0.993
    14   9 F    1.135 --    13 C    0.993
    15   1 H    0.894 --     1 N    0.881
    16   1 H    0.899 --     1 N    0.884
    17   1 H    0.899 --     1 N    0.884
    18   1 H    0.985 --     2 C    0.964
    19   1 H    0.985 --     2 C    0.964
    20   1 H    0.984 --     3 C    0.955
    21   1 H    0.984 --     3 C    0.956
 ---------------------------------------------------------------------------

molecular dipole:
                 x           y           z       tot (Debye)
 q only:        0.021       0.220       0.518
   full:        0.318       0.265       0.502       1.654

           -------------------------------------------------
          | TOTAL ENERGY              -46.929899783806 Eh   |
          | GRADIENT NORM               0.000405356462 Eh/α |
          | HOMO-LUMO GAP               4.302502179646 eV   |
           -------------------------------------------------

 * finished run on 2023/01/24 at 15:27:49.202
