   * xtb version 6.5.1 (fef0646) compiled by 'conda@b96dff2e9fd6' on 2023-01-04
          program call               : xtb init.xyz --opt -c 1 -u 0 -P 16 --input xtb.inp

   ID    Z sym.   atoms
    1    7 N      1
    2    6 C      2-5, 7, 9, 11, 13
    3    9 F      6, 8, 10, 12, 14
    4    1 H      15-21

          :  Hamiltonian                  GFN2-xTB          :
 * total energy  :   -46.8018891 Eh     change       -0.1191438E-09 Eh
 * total energy  :   -46.8034528 Eh     change       -0.1563671E-02 Eh
 * total energy  :   -46.8037464 Eh     change       -0.2935780E-03 Eh
 * total energy  :   -46.8037620 Eh     change       -0.1567919E-04 Eh
 * total energy  :   -46.8037685 Eh     change       -0.6501699E-05 Eh
 * total energy  :   -46.8037705 Eh     change       -0.1961140E-05 Eh
   *** GEOMETRY OPTIMIZATION CONVERGED AFTER 6 ITERATIONS ***

 final structure:
================
21
 xtb: 6.5.1 (fef0646)
N            0.92423303366753       -1.99663119381236       -1.85970881025156
C            2.41744745734712       -2.01812513871412       -1.87905689489484
C            2.97277119724546       -0.95154750522704       -0.93494470349108
C            4.48068174227455       -0.96962509864336       -0.95102533349746
C            5.19557153615704       -0.20845847285997       -1.86871395786142
F            4.50687123863795        0.51169201313838       -2.76177137892203
C            6.58642996227180       -0.19026349174142       -1.87968253253875
F            7.23910728080940        0.54663859920031       -2.76592724600978
C            7.28704708211527       -0.96184954023662       -0.95109219040271
F            8.60870505160944       -0.95489196427117       -0.94825064439910
C            6.59057467797426       -1.74900203450232       -0.03266864878736
F            7.24730405499801       -2.49728708742953        0.84091551285546
C            5.19941038306651       -1.74474378274786       -0.04831301514905
F            4.51614691111883       -2.50546957144000        0.81418026866223
H            0.53372359006443       -2.70887166680083       -2.49035857509537
H            0.58151156099631       -1.07193449141399       -2.15558337157166
H            0.58156889176667       -2.17825528303823       -0.90595432310643
H            2.75649238347312       -1.82981009912125       -2.89937721194827
H            2.75693035389295       -3.00807193545967       -1.56896267193112
H            2.63620546040108       -1.13979252762033        0.08608958168292
H            2.63683615011224        0.03884027274137       -1.24770385334262

          :  Hamiltonian                  GFN2-xTB          :
         :: total energy             -46.803770494527 Eh    ::
         :: gradient norm              0.000365333471 Eh/a0 ::
         :: HOMO-LUMO gap              4.108940630245 eV    ::
         :: SCC energy               -47.213657802701 Eh    ::
         :: -> dispersion             -0.016374913138 Eh    ::
         :: repulsion energy           0.409860239709 Eh    ::

    * Orbital Energies and Occupations

         #    Occupation            Energy/Eh            Energy/eV
      -------------------------------------------------------------
         1        2.0000           -0.9802011             -26.6726
       ...           ...                  ...                  ...
        27        2.0000           -0.6783168             -18.4579
        28        2.0000           -0.6721902             -18.2912
        29        2.0000           -0.6634391             -18.0531
        30        2.0000           -0.6533721             -17.7792
        31        2.0000           -0.6472200             -17.6118
        32        2.0000           -0.6430327             -17.4978
        33        2.0000           -0.6390813             -17.3903
        34        2.0000           -0.6246917             -16.9987
        35        2.0000           -0.6096573             -16.5896
        36        2.0000           -0.6089237             -16.5697
        37        2.0000           -0.5946995             -16.1826
        38        2.0000           -0.5627661             -15.3136
        39        2.0000           -0.5589748             -15.2105 (HOMO)
        40                         -0.4079740             -11.1015 (LUMO)
        41                         -0.4001121             -10.8876
        42                         -0.2851125              -7.7583
        43                         -0.2758275              -7.5056
        44                         -0.1758389              -4.7848
        45                         -0.1418564              -3.8601
        46                         -0.1256229              -3.4184
        47                         -0.1185424              -3.2257
        48                         -0.1129770              -3.0743
        49                         -0.0825245              -2.2456
        50                         -0.0799414              -2.1753
       ...                                ...                  ...
        63                          0.4741431              12.9021
      -------------------------------------------------------------
                  HL-Gap            0.1510008 Eh            4.1089 eV

     #   Z          covCN         q      C6AA      α(0)
     1   7 N        3.483    -0.126    23.731     7.235
     2   6 C        3.732    -0.033    21.255     6.581
     3   6 C        3.807    -0.075    21.921     6.665
     4   6 C        2.968    -0.030    28.753     8.796
     5   6 C        2.785     0.143    24.882     8.171
     6   9 F        0.787    -0.170    10.932     3.906
     7   6 C        2.772     0.146    24.807     8.157
     8   9 F        0.787    -0.131    10.548     3.836
     9   6 C        2.779     0.150    24.732     8.145
    10   9 F        0.788    -0.123    10.470     3.822
    11   6 C        2.772     0.146    24.807     8.157
    12   9 F        0.787    -0.131    10.547     3.836
    13   6 C        2.785     0.143    24.873     8.169
    14   9 F        0.787    -0.169    10.923     3.904
    15   1 H        0.859     0.277     0.786     1.389
    16   1 H        0.859     0.278     0.782     1.385
    17   1 H        0.859     0.278     0.782     1.385
    18   1 H        0.924     0.119     1.625     1.994
    19   1 H        0.924     0.118     1.631     1.997
    20   1 H        0.924     0.095     1.827     2.114
    21   1 H        0.924     0.095     1.828     2.115

Wiberg/Mayer (AO) data.
largest (>0.10) Wiberg bond orders for each atom

     #   Z sym  total        # sym  WBO       # sym  WBO       # sym  WBO
 ---------------------------------------------------------------------------
     1   7 N    3.676 --     2 C    0.933    15 H    0.909    17 H    0.907
                            16 H    0.907
     2   6 C    3.891 --     3 C    0.996    19 H    0.965    18 H    0.965
                             1 N    0.933
     3   6 C    3.980 --     4 C    1.004     2 C    0.996    20 H    0.964
                            21 H    0.964
     4   6 C    3.981 --    13 C    1.362     5 C    1.362     3 C    1.004
     5   6 C    3.903 --     4 C    1.362     7 C    1.338     6 F    0.996
     6   9 F    1.139 --     5 C    0.996
     7   6 C    3.913 --     5 C    1.338     9 C    1.325     8 F    1.028
     8   9 F    1.187 --     7 C    1.028
     9   6 C    3.915 --    11 C    1.326     7 C    1.325    10 F    1.036
    10   9 F    1.202 --     9 C    1.036
    11   6 C    3.913 --    13 C    1.337     9 C    1.326    12 F    1.028
    12   9 F    1.188 --    11 C    1.028
    13   6 C    3.903 --     4 C    1.362    11 C    1.337    14 F    0.997
    14   9 F    1.141 --    13 C    0.997
    15   1 H    0.923 --     1 N    0.909
    16   1 H    0.923 --     1 N    0.907
    17   1 H    0.923 --     1 N    0.907
    18   1 H    0.986 --     2 C    0.965
    19   1 H    0.986 --     2 C    0.965
    20   1 H    0.990 --     3 C    0.964
    21   1 H    0.990 --     3 C    0.964
 ---------------------------------------------------------------------------

molecular dipole:
                 x           y           z       tot (Debye)
 q only:        2.053      -3.609      -3.364
   full:        1.819      -3.628      -3.382      13.428

           -------------------------------------------------
          | TOTAL ENERGY              -46.803770494527 Eh   |
          | GRADIENT NORM               0.000365333471 Eh/α |
          | HOMO-LUMO GAP               4.108940630245 eV   |
           -------------------------------------------------

 * finished run on 2023/01/23 at 19:06:45.753
