   * xtb version 6.5.1 (fef0646) compiled by 'conda@b96dff2e9fd6' on 2023-01-04
          program call               : xtb init.xyz --opt -c 0 -u 0 -P 16 --alpb water

   ID    Z sym.   atoms
    1    7 N      1
    2    6 C      2-7, 10, 11
    3    8 O      8, 9
    4   17 Cl     12
    5    1 H      13-28

      * Solvation model:               ALPB
        Solvent                        water
        Solvent mass                       1.8000E+01 g/mol
          :  Hamiltonian                  GFN2-xTB          :
 * total energy  :   -40.9632453 Eh     change       -0.7972005E-09 Eh
 * total energy  :   -40.9693108 Eh     change       -0.6065468E-02 Eh
 * total energy  :   -40.9708755 Eh     change       -0.1564699E-02 Eh
 * total energy  :   -40.9713985 Eh     change       -0.5230063E-03 Eh
 * total energy  :   -40.9716673 Eh     change       -0.2688268E-03 Eh
 * total energy  :   -40.9718778 Eh     change       -0.2104933E-03 Eh
 * total energy  :   -40.9721028 Eh     change       -0.2249462E-03 Eh
 * total energy  :   -40.9722649 Eh     change       -0.1621180E-03 Eh
 * total energy  :   -40.9723827 Eh     change       -0.1178435E-03 Eh
 * total energy  :   -40.9724975 Eh     change       -0.1147787E-03 Eh
 * total energy  :   -40.9731170 Eh     change       -0.1119217E-04 Eh
 * total energy  :   -40.9731259 Eh     change       -0.8990211E-05 Eh
 * total energy  :   -40.9731376 Eh     change       -0.1169096E-04 Eh
 * total energy  :   -40.9731530 Eh     change       -0.1534825E-04 Eh
 * total energy  :   -40.9731673 Eh     change       -0.1433175E-04 Eh
 * total energy  :   -40.9731813 Eh     change       -0.1400871E-04 Eh
 * total energy  :   -40.9731974 Eh     change       -0.1604505E-04 Eh
 * total energy  :   -40.9732080 Eh     change       -0.1059970E-04 Eh
 * total energy  :   -40.9732120 Eh     change       -0.4064111E-05 Eh
   *** GEOMETRY OPTIMIZATION CONVERGED AFTER 31 ITERATIONS ***

 final structure:
================
28
 xtb: 6.5.1 (fef0646)
N            1.11357036116831        0.15974686275859        0.11884061834803
C            2.49182363490154       -0.23958889121963        0.46666989894865
C            2.95311289458571       -1.41726989818684       -0.39133080584873
C            2.18276310264961       -2.69783924469422       -0.06037947806130
C            2.66935932551463       -3.85978513256723       -0.92273237120521
C            4.17818092037930       -4.07821426935146       -0.72313188018553
C            4.59670574318110       -5.29132004084167       -1.52171165449403
O            4.78201727609230       -5.14295812275384       -2.83084142923054
O            4.72869080611485       -6.38715571619280       -1.02061721620539
C            4.93808665294609       -2.79787433607159       -1.07676079855976
C            4.45203416977445       -1.65375605998631       -0.19072971526264
Cl           0.72610217272157        0.38172184136635       -2.90914907998255
H            0.85582967487903        1.04222666616644        0.56494772716260
H            0.44451087460797       -0.56449580679082        0.38763252383239
H            1.02180358177199        0.28135726704565       -0.92238798097565
H            2.53805166763854       -0.50297148677791        1.52431391582987
H            3.15198961799898        0.60706280378972        0.28085056645769
H            2.76801163972890       -1.15696227536779       -1.43856707747992
H            1.11972947018613       -2.56479813991509       -0.25893583641163
H            2.31956757388696       -2.95106230613033        0.99215672090830
H            2.46205173361575       -3.63828484624879       -1.97218563398606
H            2.13266851591167       -4.77430010570699       -0.66185381784467
H            4.35614969117760       -4.33158946726094        0.32637283216113
H            4.66424428861970       -4.22662158721862       -3.14021796712330
H            4.75897643716841       -2.51732181438999       -2.11725882274679
H            6.01018226959894       -2.95070535648529       -0.94077262710599
H            5.00713270032661       -0.74910633330828       -0.43991235406181
H            4.64785320285028       -1.89658420365288        0.85472174312742

          :  Hamiltonian                  GFN2-xTB          :
         :: total energy             -40.973212029966 Eh    ::
         :: gradient norm              0.000335147080 Eh/a0 ::
         :: HOMO-LUMO gap              4.345685874555 eV    ::
         :: SCC energy               -41.403348454297 Eh    ::
         :: -> dispersion             -0.022141673645 Eh    ::
         :: -> Gsolv                  -0.088305623874 Eh    ::
         :: repulsion energy           0.429936925798 Eh    ::

    * Orbital Energies and Occupations

         #    Occupation            Energy/Eh            Energy/eV
      -------------------------------------------------------------
         1        2.0000           -1.0065612             -27.3899
       ...           ...                  ...                  ...
        24        2.0000           -0.4801692             -13.0661
        25        2.0000           -0.4755794             -12.9412
        26        2.0000           -0.4711357             -12.8203
        27        2.0000           -0.4601071             -12.5202
        28        2.0000           -0.4456799             -12.1276
        29        2.0000           -0.4422835             -12.0351
        30        2.0000           -0.4410167             -12.0007
        31        2.0000           -0.4244239             -11.5492
        32        2.0000           -0.4174096             -11.3583
        33        2.0000           -0.4091821             -11.1344
        34        2.0000           -0.4030172             -10.9667
        35        2.0000           -0.4006556             -10.9024
        36        2.0000           -0.4001446             -10.8885 (HOMO)
        37                         -0.2404436              -6.5428 (LUMO)
        38                         -0.0291369              -0.7929
        39                          0.0430156               1.1705
        40                          0.0547674               1.4903
        41                          0.0675069               1.8370
        42                          0.0792285               2.1559
        43                          0.0830780               2.2607
        44                          0.0898220               2.4442
        45                          0.0987255               2.6865
        46                          0.1141115               3.1051
        47                          0.1160248               3.1572
       ...                                ...                  ...
        69                          0.5915964              16.0982
      -------------------------------------------------------------
                  HL-Gap            0.1597010 Eh            4.3457 eV

     #   Z          covCN         q      C6AA      α(0)
     1   7 N        3.483    -0.167    24.598     7.366
     2   6 C        3.735    -0.035    21.292     6.585
     3   6 C        3.856    -0.030    21.077     6.529
     4   6 C        3.808    -0.076    21.937     6.667
     5   6 C        3.810    -0.055    21.551     6.608
     6   6 C        3.857    -0.057    21.557     6.603
     7   6 C        2.693     0.366    20.791     7.463
     8   8 O        1.659    -0.413    21.100     6.201
     9   8 O        0.857    -0.477    23.275     6.468
    10   6 C        3.806    -0.064    21.714     6.634
    11   6 C        3.810    -0.072    21.876     6.658
    12  17 Cl       0.046    -0.948   124.902    17.009
    13   1 H        0.860     0.306     0.696     1.307
    14   1 H        0.859     0.290     0.745     1.352
    15   1 H        0.902     0.295     0.724     1.331
    16   1 H        0.924     0.107     1.722     2.052
    17   1 H        0.925     0.103     1.757     2.073
    18   1 H        0.924     0.065     2.144     2.290
    19   1 H        0.925     0.057     2.240     2.340
    20   1 H        0.924     0.060     2.195     2.317
    21   1 H        0.924     0.041     2.441     2.443
    22   1 H        0.924     0.037     2.487     2.466
    23   1 H        0.924     0.072     2.061     2.245
    24   1 H        0.804     0.395     0.494     1.104
    25   1 H        0.924     0.044     2.393     2.419
    26   1 H        0.924     0.044     2.393     2.419
    27   1 H        0.924     0.053     2.279     2.361
    28   1 H        0.924     0.058     2.224     2.332

Wiberg/Mayer (AO) data.
largest (>0.10) Wiberg bond orders for each atom

     #   Z sym  total        # sym  WBO       # sym  WBO       # sym  WBO
 ---------------------------------------------------------------------------
     1   7 N    3.646 --     2 C    0.969    14 H    0.898    13 H    0.893
                            15 H    0.832
     2   6 C    3.929 --     3 C    0.997     1 N    0.969    17 H    0.967
                            16 H    0.966
     3   6 C    3.992 --     4 C    0.997     2 C    0.997    11 C    0.995
                            18 H    0.961
     4   6 C    3.994 --     5 C    1.004     3 C    0.997    20 H    0.974
                            19 H    0.970
     5   6 C    3.993 --     4 C    1.004    22 H    0.977    21 H    0.975
                             6 C    0.965
     6   6 C    3.989 --    10 C    0.988     7 C    0.969     5 C    0.965
                            23 H    0.960
     7   6 C    3.894 --     9 O    1.714     8 O    1.162     6 C    0.969
     8   8 O    2.188 --     7 C    1.162    24 H    0.812     9 O    0.158
     9   8 O    1.981 --     7 C    1.714     8 O    0.158
    10   6 C    3.995 --    11 C    1.006     6 C    0.988    26 H    0.976
                            25 H    0.967
    11   6 C    3.994 --    10 C    1.006     3 C    0.995    28 H    0.974
                            27 H    0.974
    12  17 Cl   0.102
    13   1 H    0.906 --     1 N    0.893
    14   1 H    0.916 --     1 N    0.898
    15   1 H    0.913 --     1 N    0.832
    16   1 H    0.989 --     2 C    0.966
    17   1 H    0.989 --     2 C    0.967
    18   1 H    0.996 --     3 C    0.961
    19   1 H    0.996 --     4 C    0.970
    20   1 H    0.996 --     4 C    0.974
    21   1 H    0.998 --     5 C    0.975
    22   1 H    0.998 --     5 C    0.977
    23   1 H    0.995 --     6 C    0.960
    24   1 H    0.844 --     8 O    0.812
    25   1 H    0.998 --    10 C    0.967
    26   1 H    0.998 --    10 C    0.976
    27   1 H    0.996 --    11 C    0.974
    28   1 H    0.997 --    11 C    0.974
 ---------------------------------------------------------------------------

molecular dipole:
                 x           y           z       tot (Debye)
 q only:        0.447       1.871       5.172
   full:        0.131       2.124       4.341      12.288

           -------------------------------------------------
          | TOTAL ENERGY              -40.973212029966 Eh   |
          | GRADIENT NORM               0.000335147080 Eh/α |
          | HOMO-LUMO GAP               4.345685874555 eV   |
           -------------------------------------------------

 * finished run on 2023/01/24 at 14:56:00.011
