   * xtb version 6.5.1 (fef0646) compiled by 'conda@b96dff2e9fd6' on 2023-01-04
          program call               : xtb init.xyz --opt -c 0 -u 0 -P 16

   ID    Z sym.   atoms
    1    7 N      1
    2    6 C      2-19
    3   16 S      20-23
    4   17 Cl     24
    5    1 H      25-40

          :  Hamiltonian                  GFN2-xTB          :
 * total energy  :   -67.1049439 Eh     change       -0.1149630E-08 Eh
 * total energy  :   -67.1160209 Eh     change       -0.1107699E-01 Eh
 * total energy  :   -67.1223331 Eh     change       -0.6312273E-02 Eh
 * total energy  :   -67.1253963 Eh     change       -0.3063176E-02 Eh
 * total energy  :   -67.1287264 Eh     change       -0.3330106E-02 Eh
 * total energy  :   -67.1313275 Eh     change       -0.2601111E-02 Eh
 * total energy  :   -67.1330526 Eh     change       -0.1725032E-02 Eh
 * total energy  :   -67.1337122 Eh     change       -0.6596720E-03 Eh
 * total energy  :   -67.1339388 Eh     change       -0.2265193E-03 Eh
 * total energy  :   -67.1340492 Eh     change       -0.1104425E-03 Eh
 * total energy  :   -67.1366162 Eh     change       -0.7721063E-05 Eh
 * total energy  :   -67.1366239 Eh     change       -0.7670481E-05 Eh
 * total energy  :   -67.1366310 Eh     change       -0.7118450E-05 Eh
 * total energy  :   -67.1366377 Eh     change       -0.6710475E-05 Eh
 * total energy  :   -67.1366443 Eh     change       -0.6561243E-05 Eh
 * total energy  :   -67.1366511 Eh     change       -0.6793712E-05 Eh
 * total energy  :   -67.1366578 Eh     change       -0.6755214E-05 Eh
 * total energy  :   -67.1366635 Eh     change       -0.5721883E-05 Eh
 * total energy  :   -67.1366645 Eh     change       -0.9832227E-06 Eh
   *** GEOMETRY OPTIMIZATION CONVERGED AFTER 68 ITERATIONS ***

 final structure:
================
40
 xtb: 6.5.1 (fef0646)
N            3.68320234051329        0.56909832462191        1.40620331118644
C            2.91559585598023        1.20954373178854        0.34920933751155
C            3.70730541984154        2.25070498752317       -0.46925216874642
C            4.79992309161293        1.62303007216759       -1.26236234462064
C            4.77507592696553        1.22205021171469       -2.56427728728150
C            5.97498646590312        0.62799444321905       -2.99292679556926
C            6.93115973756858        0.56486886884517       -2.01275758156325
C            8.25358098194737        0.04332723590446       -2.09056425031284
C            9.20838792741069       -0.01527790226593       -1.10319516305512
C           10.41296815668717       -0.58195013350876       -1.52785237722844
C           10.40125284251946       -0.96729151254085       -2.84815974169427
C           11.44798078143165       -1.56391189987306       -3.60261607903959
C           11.43550124805792       -1.94996193971360       -4.92276860697489
C           12.64607847427782       -2.49970391030003       -5.35258618250905
C           13.60665521024941       -2.54417661536171       -4.37016368309970
C           14.94216871180028       -3.03179922658625       -4.46226301997396
C           15.90281476768157       -3.07665096390031       -3.48373362673510
C           17.11995003754915       -3.62217034436058       -3.92968690212724
C           17.08358959024022       -3.98913656812011       -5.23776738703424
S           15.55625217191738       -3.67658049310136       -5.96015386809335
S           12.99746274763098       -1.89131635449663       -2.87513896198306
S            8.85933045449582       -0.62192715907035       -3.58239286444776
S            6.33341589578490        1.25524710617341       -0.52902260571205
Cl           1.93072321593857       -1.27525790507263        2.88217156238127
H            2.75189054265360       -0.43076009886933        2.19924860096501
H            4.03842557166395        1.25705131524137        2.06260357965707
H            4.47317659789260        0.05869580212363        1.02340115371949
H            2.05705962272164        1.69969078772128        0.81283432636918
H            2.54715374171550        0.42660581435736       -0.31690463261588
H            4.12252541398476        2.99590317981744        0.21415556467940
H            3.01872550110459        2.75321923131581       -1.15031375479866
H            3.92000442322696        1.35797805600124       -3.20232981985511
H            6.14370890214440        0.25822241821531       -3.98855552311490
H            9.03216620466990        0.34554476432090       -0.10490531262802
H           11.27494893212237       -0.71026195905459       -0.89743530902901
H           10.56952266180337       -1.83248101935659       -5.55012075080501
H           12.82529926981871       -2.85705303658499       -6.35121552536686
H           15.72777592551223       -2.72617341123160       -2.48205021082237
H           17.98688665780260       -3.73699821816724       -3.30410628258829
H           17.86190797717964       -4.42689567949716       -5.83029881704370

          :  Hamiltonian                  GFN2-xTB          :
         :: total energy             -67.136664520709 Eh    ::
         :: gradient norm              0.000111876387 Eh/a0 ::
         :: HOMO-LUMO gap              1.775221695563 eV    ::
         :: SCC energy               -68.064130904818 Eh    ::
         :: -> dispersion             -0.050726838173 Eh    ::
         :: repulsion energy           0.928196254914 Eh    ::

    * Orbital Energies and Occupations

         #    Occupation            Energy/Eh            Energy/eV
      -------------------------------------------------------------
         1        2.0000           -1.0186098             -27.7178
       ...           ...                  ...                  ...
        50        2.0000           -0.4533863             -12.3373
        51        2.0000           -0.4495281             -12.2323
        52        2.0000           -0.4444463             -12.0940
        53        2.0000           -0.4201015             -11.4315
        54        2.0000           -0.4101257             -11.1601
        55        2.0000           -0.4072484             -11.0818
        56        2.0000           -0.4062248             -11.0539
        57        2.0000           -0.4039038             -10.9908
        58        2.0000           -0.4030838             -10.9685
        59        2.0000           -0.3956175             -10.7653
        60        2.0000           -0.3955581             -10.7637
        61        2.0000           -0.3866868             -10.5223
        62        2.0000           -0.3612692              -9.8306 (HOMO)
        63                         -0.2960310              -8.0554 (LUMO)
        64                         -0.2684774              -7.3056
        65                         -0.2391110              -6.5065
        66                         -0.2251903              -6.1277
        67                         -0.2204494              -5.9987
        68                         -0.2130505              -5.7974
        69                         -0.2114318              -5.7534
        70                         -0.2029435              -5.5224
        71                         -0.1885246              -5.1300
        72                         -0.1693507              -4.6083
        73                         -0.1577852              -4.2936
       ...                                ...                  ...
       137                          0.6997179              19.0403
      -------------------------------------------------------------
                  HL-Gap            0.0652382 Eh            1.7752 eV

     #   Z          covCN         q      C6AA      α(0)
     1   7 N        2.676    -0.307    27.887     7.843
     2   6 C        3.732     0.002    20.633     6.483
     3   6 C        3.823    -0.071    21.840     6.650
     4   6 C        2.985     0.019    27.582     8.615
     5   6 C        3.108    -0.053    29.164     8.848
     6   6 C        3.107    -0.051    29.114     8.841
     7   6 C        3.022     0.019    27.562     8.612
     8   6 C        3.023     0.020    27.533     8.607
     9   6 C        3.096    -0.048    29.058     8.835
    10   6 C        3.097    -0.048    29.076     8.837
    11   6 C        3.023     0.023    27.476     8.598
    12   6 C        3.023     0.021    27.514     8.604
    13   6 C        3.097    -0.047    29.049     8.833
    14   6 C        3.097    -0.048    29.065     8.835
    15   6 C        3.022     0.023    27.479     8.599
    16   6 C        3.024     0.020    27.545     8.609
    17   6 C        3.109    -0.050    29.084     8.835
    18   6 C        3.108    -0.041    28.872     8.804
    19   6 C        2.941    -0.019    28.479     8.752
    20  16 S        2.327    -0.028   142.206    20.071
    21  16 S        2.345    -0.042   142.802    20.113
    22  16 S        2.345    -0.044   142.875    20.118
    23  16 S        2.353    -0.062   143.618    20.170
    24  17 Cl       0.839    -0.473   114.690    16.383
    25   1 H        0.886     0.331     0.626     1.239
    26   1 H        0.860     0.169     1.279     1.772
    27   1 H        0.860     0.174     1.248     1.750
    28   1 H        0.924     0.059     2.216     2.328
    29   1 H        0.924     0.058     2.222     2.331
    30   1 H        0.924     0.050     2.317     2.380
    31   1 H        0.924     0.054     2.267     2.355
    32   1 H        0.926     0.039     2.464     2.454
    33   1 H        0.926     0.043     2.406     2.426
    34   1 H        0.926     0.043     2.413     2.429
    35   1 H        0.926     0.045     2.385     2.415
    36   1 H        0.926     0.045     2.388     2.417
    37   1 H        0.926     0.046     2.375     2.410
    38   1 H        0.926     0.043     2.405     2.425
    39   1 H        0.926     0.040     2.446     2.446
    40   1 H        0.926     0.047     2.363     2.404

Wiberg/Mayer (AO) data.
largest (>0.10) Wiberg bond orders for each atom

     #   Z sym  total        # sym  WBO       # sym  WBO       # sym  WBO
 ---------------------------------------------------------------------------
     1   7 N    3.237 --     2 C    1.019    26 H    0.957    27 H    0.950
                            25 H    0.190
     2   6 C    3.973 --     1 N    1.019    29 H    0.974     3 C    0.973
                            28 H    0.972
     3   6 C    3.995 --     4 C    1.030     2 C    0.973    30 H    0.968
                            31 H    0.966
     4   6 C    3.923 --     5 C    1.573    23 S    1.148     3 C    1.030
     5   6 C    3.985 --     4 C    1.573     6 C    1.300    32 H    0.964
     6   6 C    3.969 --     7 C    1.506     5 C    1.300    33 H    0.961
     7   6 C    3.950 --     6 C    1.506     8 C    1.166    23 S    1.110
     8   6 C    3.930 --     9 C    1.476     7 C    1.166    22 S    1.120
     9   6 C    3.983 --     8 C    1.476    10 C    1.343    34 H    0.961
    10   6 C    3.972 --    11 C    1.472     9 C    1.343    35 H    0.961
    11   6 C    3.938 --    10 C    1.472    12 C    1.176    22 S    1.119
    12   6 C    3.939 --    13 C    1.471    11 C    1.176    21 S    1.118
    13   6 C    3.972 --    12 C    1.471    14 C    1.344    36 H    0.961
    14   6 C    3.985 --    15 C    1.478    13 C    1.344    37 H    0.961
    15   6 C    3.931 --    14 C    1.478    16 C    1.164    21 S    1.123
    16   6 C    3.952 --    17 C    1.504    15 C    1.164    20 S    1.124
    17   6 C    3.970 --    16 C    1.504    18 C    1.302    38 H    0.962
    18   6 C    3.987 --    19 C    1.602    17 C    1.302    39 H    0.965
    19   6 C    3.925 --    18 C    1.602    20 S    1.194    40 H    0.970
    20  16 S    2.601 --    19 C    1.194    16 C    1.124
    21  16 S    2.565 --    15 C    1.123    12 C    1.118
    22  16 S    2.561 --     8 C    1.120    11 C    1.119
    23  16 S    2.566 --     4 C    1.148     7 C    1.110
    24  17 Cl   0.777 --    25 H    0.697
    25   1 H    0.890 --    24 Cl   0.697     1 N    0.190
    26   1 H    0.971 --     1 N    0.957
    27   1 H    0.970 --     1 N    0.950
    28   1 H    0.995 --     2 C    0.972
    29   1 H    0.997 --     2 C    0.974
    30   1 H    0.996 --     3 C    0.968
    31   1 H    0.996 --     3 C    0.966
    32   1 H    0.998 --     5 C    0.964
    33   1 H    0.998 --     6 C    0.961
    34   1 H    0.998 --     9 C    0.961
    35   1 H    0.998 --    10 C    0.961
    36   1 H    0.998 --    13 C    0.961
    37   1 H    0.997 --    14 C    0.961
    38   1 H    0.998 --    17 C    0.962
    39   1 H    0.998 --    18 C    0.965
    40   1 H    0.997 --    19 C    0.970
 ---------------------------------------------------------------------------

molecular dipole:
                 x           y           z       tot (Debye)
 q only:        1.037       1.249      -1.006
   full:        1.195       1.160      -1.024       4.969

           -------------------------------------------------
          | TOTAL ENERGY              -67.136664520709 Eh   |
          | GRADIENT NORM               0.000111876387 Eh/α |
          | HOMO-LUMO GAP               1.775221695563 eV   |
           -------------------------------------------------

 * finished run on 2023/01/23 at 14:02:54.580
