   * xtb version 6.5.1 (fef0646) compiled by 'conda@b96dff2e9fd6' on 2023-01-04
          program call               : xtb init.xyz --opt -c 0 -u 0 -P 16 --input xtb.inp

   ID    Z sym.   atoms
    1    7 N      1
    2    6 C      2-6
    3   16 S      7
    4   17 Cl     8
    5    1 H      9-16

          :  Hamiltonian                  GFN2-xTB          :
 * total energy  :   -25.4504659 Eh     change       -0.3229239E-09 Eh
 * total energy  :   -25.4577391 Eh     change       -0.7273135E-02 Eh
 * total energy  :   -25.4634231 Eh     change       -0.5684032E-02 Eh
 * total energy  :   -25.4665202 Eh     change       -0.3097040E-02 Eh
 * total energy  :   -25.4693344 Eh     change       -0.2814286E-02 Eh
 * total energy  :   -25.4711555 Eh     change       -0.1821059E-02 Eh
 * total energy  :   -25.4718097 Eh     change       -0.6541567E-03 Eh
 * total energy  :   -25.4723270 Eh     change       -0.5173331E-03 Eh
 * total energy  :   -25.4724694 Eh     change       -0.1424507E-03 Eh
 * total energy  :   -25.4725288 Eh     change       -0.5934578E-04 Eh
 * total energy  :   -25.4731573 Eh     change       -0.1789996E-03 Eh
 * total energy  :   -25.4732100 Eh     change       -0.5278417E-04 Eh
 * total energy  :   -25.4732479 Eh     change       -0.3785936E-04 Eh
 * total energy  :   -25.4732621 Eh     change       -0.1418149E-04 Eh
 * total energy  :   -25.4732810 Eh     change       -0.1892930E-04 Eh
 * total energy  :   -25.4733063 Eh     change       -0.2526092E-04 Eh
 * total energy  :   -25.4733177 Eh     change       -0.1145025E-04 Eh
 * total energy  :   -25.4733339 Eh     change       -0.1621153E-04 Eh
 * total energy  :   -25.4733359 Eh     change       -0.1949292E-05 Eh
   *** GEOMETRY OPTIMIZATION CONVERGED AFTER 22 ITERATIONS ***

 final structure:
================
16
 xtb: 6.5.1 (fef0646)
N            1.30814456003637       -0.37788814557547       -0.35453949635086
C            2.75135665066476       -0.11266670878092       -0.28559279692360
C            3.06498026111792        1.16297297703478       -0.99247907540190
C            2.99365603278917        2.43292025876090       -0.51231521300738
C            3.31369474465178        3.40817079260077       -1.48312772654403
C            3.61727634368477        2.86638292033362       -2.68846333094250
S            3.51988469681659        1.15164221290760       -2.66782377238049
Cl          -0.14343826863171        1.69467424577952        1.14899837680888
H            1.08128025503245       -1.26424011380025        0.08315611636193
H            0.99644686655967       -0.39997606332944       -1.32048499637024
H            0.52978157979848        0.75257961854723        0.43221287780081
H            3.34045146087901       -0.92974810758638       -0.72441077152982
H            3.01398468290594       -0.01882858585150        0.77138229632821
H            2.71485898764697        2.66233313187553        0.49935247416202
H            3.31581006981836        4.46561417126746       -1.28985707697127
H            3.89533107622952        3.36333739581619       -3.59651788503969

          :  Hamiltonian                  GFN2-xTB          :
         :: total energy             -25.473335891849 Eh    ::
         :: gradient norm              0.000305283798 Eh/a0 ::
         :: HOMO-LUMO gap              3.925368867833 eV    ::
         :: SCC energy               -25.768726842020 Eh    ::
         :: -> dispersion             -0.013693880196 Eh    ::
         :: repulsion energy           0.295329465204 Eh    ::

    * Orbital Energies and Occupations

         #    Occupation            Energy/Eh            Energy/eV
      -------------------------------------------------------------
         1        2.0000           -1.0202372             -27.7621
       ...           ...                  ...                  ...
        11        2.0000           -0.5375683             -14.6280
        12        2.0000           -0.5146221             -14.0036
        13        2.0000           -0.4924449             -13.4001
        14        2.0000           -0.4836536             -13.1609
        15        2.0000           -0.4739136             -12.8958
        16        2.0000           -0.4709103             -12.8141
        17        2.0000           -0.4602825             -12.5249
        18        2.0000           -0.4531899             -12.3319
        19        2.0000           -0.4053420             -11.0299
        20        2.0000           -0.4022468             -10.9457
        21        2.0000           -0.3974334             -10.8147
        22        2.0000           -0.3973132             -10.8114
        23        2.0000           -0.3958618             -10.7719 (HOMO)
        24                         -0.2516072              -6.8466 (LUMO)
        25                         -0.2095090              -5.7010
        26                         -0.1736310              -4.7247
        27                         -0.1235089              -3.3608
        28                         -0.0582396              -1.5848
        29                         -0.0123328              -0.3356
        30                          0.0070514               0.1919
        31                          0.0269406               0.7331
        32                          0.0414479               1.1279
        33                          0.0631279               1.7178
        34                          0.0633472               1.7238
       ...                                ...                  ...
        50                          0.6946323              18.9019
      -------------------------------------------------------------
                  HL-Gap            0.1442547 Eh            3.9254 eV

     #   Z          covCN         q      C6AA      α(0)
     1   7 N        2.677    -0.309    27.962     7.854
     2   6 C        3.755     0.008    20.504     6.457
     3   6 C        2.991     0.009    27.803     8.650
     4   6 C        3.117    -0.047    29.000     8.820
     5   6 C        3.118    -0.041    28.846     8.797
     6   6 C        2.940    -0.019    28.490     8.754
     7  16 S        2.332    -0.040   142.725    20.107
     8  17 Cl       0.839    -0.474   114.722    16.386
     9   1 H        0.860     0.168     1.284     1.775
    10   1 H        0.860     0.170     1.272     1.767
    11   1 H        0.884     0.332     0.623     1.236
    12   1 H        0.923     0.037     2.492     2.469
    13   1 H        0.924     0.062     2.181     2.309
    14   1 H        0.926     0.058     2.225     2.332
    15   1 H        0.926     0.043     2.407     2.426
    16   1 H        0.926     0.045     2.386     2.415

Wiberg/Mayer (AO) data.
largest (>0.10) Wiberg bond orders for each atom

     #   Z sym  total        # sym  WBO       # sym  WBO       # sym  WBO
 ---------------------------------------------------------------------------
     1   7 N    3.220 --     2 C    0.993     9 H    0.957    10 H    0.957
                            11 H    0.190
     2   6 C    3.978 --     3 C    1.020     1 N    0.993    12 H    0.969
                            13 H    0.966
     3   6 C    3.946 --     4 C    1.606     7 S    1.158     2 C    1.020
                             6 C    0.118
     4   6 C    3.988 --     3 C    1.606     5 C    1.270    14 H    0.961
     5   6 C    3.989 --     6 C    1.634     4 C    1.270    15 H    0.964
     6   6 C    3.948 --     5 C    1.634     7 S    1.190    16 H    0.971
                             3 C    0.118
     7  16 S    2.612 --     6 C    1.190     3 C    1.158
     8  17 Cl   0.778 --    11 H    0.696
     9   1 H    0.971 --     1 N    0.957
    10   1 H    0.971 --     1 N    0.957
    11   1 H    0.890 --     8 Cl   0.696     1 N    0.190
    12   1 H    0.998 --     2 C    0.969
    13   1 H    0.996 --     2 C    0.966
    14   1 H    0.997 --     4 C    0.961
    15   1 H    0.998 --     5 C    0.964
    16   1 H    0.998 --     6 C    0.971
 ---------------------------------------------------------------------------

molecular dipole:
                 x           y           z       tot (Debye)
 q only:        1.006      -1.138      -0.822
   full:        0.839      -0.927      -0.655       3.587

           -------------------------------------------------
          | TOTAL ENERGY              -25.473335891849 Eh   |
          | GRADIENT NORM               0.000305283798 Eh/α |
          | HOMO-LUMO GAP               3.925368867833 eV   |
           -------------------------------------------------

 * finished run on 2023/01/23 at 18:52:50.824
