   * xtb version 6.5.1 (fef0646) compiled by 'conda@b96dff2e9fd6' on 2023-01-04
          program call               : xtb init.xyz --opt -c 0 -u 0 -P 16 --alpb water

   ID    Z sym.   atoms
    1    7 N      1
    2    6 C      2-6
    3   16 S      7
    4   17 Cl     8
    5    1 H      9-16

      * Solvation model:               ALPB
        Solvent                        water
        Solvent mass                       1.8000E+01 g/mol
          :  Hamiltonian                  GFN2-xTB          :
 * total energy  :   -25.5053282 Eh     change       -0.6158949E-09 Eh
 * total energy  :   -25.5105881 Eh     change       -0.5259926E-02 Eh
 * total energy  :   -25.5118100 Eh     change       -0.1221910E-02 Eh
 * total energy  :   -25.5122880 Eh     change       -0.4780272E-03 Eh
 * total energy  :   -25.5126028 Eh     change       -0.3147636E-03 Eh
 * total energy  :   -25.5128411 Eh     change       -0.2382867E-03 Eh
 * total energy  :   -25.5130751 Eh     change       -0.2340390E-03 Eh
 * total energy  :   -25.5132574 Eh     change       -0.1822263E-03 Eh
 * total energy  :   -25.5133009 Eh     change       -0.4350492E-04 Eh
 * total energy  :   -25.5133187 Eh     change       -0.1781285E-04 Eh
 * total energy  :   -25.5135400 Eh     change       -0.1100976E-04 Eh
 * total energy  :   -25.5135507 Eh     change       -0.1070329E-04 Eh
 * total energy  :   -25.5135563 Eh     change       -0.5544697E-05 Eh
 * total energy  :   -25.5135642 Eh     change       -0.7918371E-05 Eh
 * total energy  :   -25.5135715 Eh     change       -0.7283272E-05 Eh
 * total energy  :   -25.5135794 Eh     change       -0.7863557E-05 Eh
 * total energy  :   -25.5135887 Eh     change       -0.9308581E-05 Eh
 * total energy  :   -25.5135949 Eh     change       -0.6277260E-05 Eh
 * total energy  :   -25.5135994 Eh     change       -0.4424763E-05 Eh
   *** GEOMETRY OPTIMIZATION CONVERGED AFTER 30 ITERATIONS ***

 final structure:
================
16
 xtb: 6.5.1 (fef0646)
N            1.33022928835409       -0.57922725731180        0.13146474350383
C            2.66897784594014       -0.04473208903264       -0.20510534973960
C            3.01900650661528        1.07372704557211        0.71449231732745
C            3.34568772979978        2.35852628407517        0.41929842837552
C            3.58733688957223        3.14482565179717        1.56946666070784
C            3.43572460994690        2.44893806612931        2.72342428810331
S            3.00287464778386        0.81981229378984        2.43306954076523
Cl          -0.54007464383840        1.81916472142974        0.30250415640456
H            1.02471034025012       -1.28151837152360       -0.54600048988041
H            0.63057430526156        0.20866088443458        0.14075360643636
H            1.33579106188092       -0.97874317986571        1.07443813302874
H            2.65833311249472        0.33634697168610       -1.22610446353288
H            3.40444855901696       -0.84798935521290       -0.11926565035042
H            3.40485281207809        2.74430696235366       -0.58183858150317
H            3.85286368287411        4.18663785437036        1.53666726647824
H            3.54583325196867        2.79128351730950        3.73338539387567

          :  Hamiltonian                  GFN2-xTB          :
         :: total energy             -25.513599363504 Eh    ::
         :: gradient norm              0.000361570925 Eh/a0 ::
         :: HOMO-LUMO gap              3.925397632037 eV    ::
         :: SCC energy               -25.817625991557 Eh    ::
         :: -> dispersion             -0.013555731104 Eh    ::
         :: -> Gsolv                  -0.074616335722 Eh    ::
         :: repulsion energy           0.303956064056 Eh    ::

    * Orbital Energies and Occupations

         #    Occupation            Energy/Eh            Energy/eV
      -------------------------------------------------------------
         1        2.0000           -1.0059745             -27.3740
       ...           ...                  ...                  ...
        11        2.0000           -0.5426067             -14.7651
        12        2.0000           -0.5164782             -14.0541
        13        2.0000           -0.4894029             -13.3173
        14        2.0000           -0.4739431             -12.8966
        15        2.0000           -0.4695962             -12.7784
        16        2.0000           -0.4639536             -12.6248
        17        2.0000           -0.4524192             -12.3110
        18        2.0000           -0.4460487             -12.1376
        19        2.0000           -0.4038077             -10.9882
        20        2.0000           -0.3998670             -10.8809
        21        2.0000           -0.3996588             -10.8753
        22        2.0000           -0.3927405             -10.6870
        23        2.0000           -0.3866413             -10.5210 (HOMO)
        24                         -0.2423856              -6.5956 (LUMO)
        25                         -0.2026867              -5.5154
        26                         -0.1657401              -4.5100
        27                         -0.1153538              -3.1389
        28                         -0.0238363              -0.6486
        29                         -0.0010647              -0.0290
        30                          0.0298051               0.8110
        31                          0.0415770               1.1314
        32                          0.0838306               2.2811
        33                          0.1053187               2.8659
        34                          0.1107769               3.0144
       ...                                ...                  ...
        50                          0.7062925              19.2192
      -------------------------------------------------------------
                  HL-Gap            0.1442557 Eh            3.9254 eV

     #   Z          covCN         q      C6AA      α(0)
     1   7 N        3.485    -0.172    24.715     7.384
     2   6 C        3.757    -0.033    21.207     6.566
     3   6 C        2.990     0.022    27.500     8.602
     4   6 C        3.121    -0.053    29.137     8.840
     5   6 C        3.129    -0.049    29.017     8.819
     6   6 C        2.938    -0.029    28.732     8.791
     7  16 S        2.350    -0.015   141.687    20.034
     8  17 Cl       0.054    -0.947   124.864    17.006
     9   1 H        0.859     0.315     0.670     1.282
    10   1 H        0.911     0.298     0.716     1.323
    11   1 H        0.859     0.301     0.709     1.319
    12   1 H        0.925     0.118     1.626     1.994
    13   1 H        0.924     0.133     1.512     1.923
    14   1 H        0.926     0.046     2.371     2.408
    15   1 H        0.926     0.028     2.618     2.530
    16   1 H        0.926     0.037     2.490     2.468

Wiberg/Mayer (AO) data.
largest (>0.10) Wiberg bond orders for each atom

     #   Z sym  total        # sym  WBO       # sym  WBO       # sym  WBO
 ---------------------------------------------------------------------------
     1   7 N    3.640 --     2 C    0.966    11 H    0.893     9 H    0.887
                            10 H    0.829
     2   6 C    3.934 --     3 C    1.026     1 N    0.966    12 H    0.959
                            13 H    0.949
     3   6 C    3.949 --     4 C    1.608     7 S    1.156     2 C    1.026
                             6 C    0.115
     4   6 C    3.988 --     3 C    1.608     5 C    1.267    14 H    0.963
     5   6 C    3.989 --     6 C    1.637     4 C    1.267    15 H    0.965
     6   6 C    3.953 --     5 C    1.637     7 S    1.193    16 H    0.972
                             3 C    0.115
     7  16 S    2.614 --     6 C    1.193     3 C    1.156
     8  17 Cl   0.103
     9   1 H    0.900 --     1 N    0.887
    10   1 H    0.911 --     1 N    0.829
    11   1 H    0.909 --     1 N    0.893
    12   1 H    0.986 --     2 C    0.959
    13   1 H    0.982 --     2 C    0.949
    14   1 H    0.998 --     4 C    0.963
    15   1 H    0.999 --     5 C    0.965
    16   1 H    0.998 --     6 C    0.972
 ---------------------------------------------------------------------------

molecular dipole:
                 x           y           z       tot (Debye)
 q only:        3.469      -4.398      -0.599
   full:        2.985      -3.309      -0.490      11.395

           -------------------------------------------------
          | TOTAL ENERGY              -25.513599363504 Eh   |
          | GRADIENT NORM               0.000361570925 Eh/α |
          | HOMO-LUMO GAP               3.925397632037 eV   |
           -------------------------------------------------

 * finished run on 2023/01/24 at 15:17:23.571
