   * xtb version 6.5.1 (fef0646) compiled by 'conda@b96dff2e9fd6' on 2023-01-04
          program call               : xtb init.xyz --opt -c 0 -u 0 -P 16

   ID    Z sym.   atoms
    1    7 N      1
    2    6 C      2-7, 9, 10
    3   35 Br     8
    4   17 Cl     11
    5    1 H      12-22

          :  Hamiltonian                  GFN2-xTB          :
 * total energy  :   -34.2481318 Eh     change       -0.3699085E-10 Eh
 * total energy  :   -34.2503847 Eh     change       -0.2252901E-02 Eh
 * total energy  :   -34.2556132 Eh     change       -0.5228445E-02 Eh
 * total energy  :   -34.2601326 Eh     change       -0.4519429E-02 Eh
 * total energy  :   -34.2646116 Eh     change       -0.4479050E-02 Eh
 * total energy  :   -34.2722968 Eh     change       -0.7685207E-02 Eh
 * total energy  :   -34.2749420 Eh     change       -0.2645139E-02 Eh
 * total energy  :   -34.2767622 Eh     change       -0.1820268E-02 Eh
 * total energy  :   -34.2783936 Eh     change       -0.1631378E-02 Eh
 * total energy  :   -34.2793641 Eh     change       -0.9704825E-03 Eh
 * total energy  :   -34.2836418 Eh     change       -0.2770395E-04 Eh
 * total energy  :   -34.2836549 Eh     change       -0.1316961E-04 Eh
 * total energy  :   -34.2836733 Eh     change       -0.1838759E-04 Eh
 * total energy  :   -34.2836909 Eh     change       -0.1761449E-04 Eh
 * total energy  :   -34.2837126 Eh     change       -0.2161406E-04 Eh
 * total energy  :   -34.2837300 Eh     change       -0.1746152E-04 Eh
 * total energy  :   -34.2837398 Eh     change       -0.9754166E-05 Eh
 * total energy  :   -34.2837461 Eh     change       -0.6334865E-05 Eh
 * total energy  :   -34.2837508 Eh     change       -0.4737635E-05 Eh
   *** GEOMETRY OPTIMIZATION CONVERGED AFTER 33 ITERATIONS ***

 final structure:
================
22
 xtb: 6.5.1 (fef0646)
N            1.10266552238623       -0.07322004147916       -0.31566141476173
C            2.56074146434755       -0.04951298745729       -0.22049445402893
C            3.01062043172545        1.17458819831819        0.58368382550846
C            4.49162758437131        1.12397632450401        0.82376646815646
C            5.37911181500799        1.73425957702032       -0.05364188272824
C            6.74538595528379        1.65803566550100        0.14884786262715
C            7.22411865436659        0.95854917716687        1.24235690765053
Br           9.10648132311800        0.84866958732549        1.53151656911848
C            6.36162528788502        0.33941371652996        2.13055966639231
C            4.99900437556978        0.42557174239723        1.91332016105461
Cl           0.04177451539407       -0.23812227000333        2.41948449445986
H            0.78134933708478       -0.88585603125061       -0.83009763353880
H            0.75528046321290        0.76364355807971       -0.77324976072107
H            0.52136970893521       -0.15629810380188        1.14091506282109
H            3.04520184650616       -0.03796709725472       -1.20722860073771
H            2.87139393539102       -0.95850025696664        0.29983762134590
H            2.47558769127524        1.17538431853461        1.53314990516726
H            2.74962240653334        2.08237205605527        0.03652738734780
H            5.00198508859781        2.28236371539881       -0.90474313490776
H            7.43128009760216        2.13641972771940       -0.53318874410644
H            6.75103701795587       -0.19981976900001        2.98023240951854
H            4.31865547745608       -0.05101080733629        2.60294728436061

          :  Hamiltonian                  GFN2-xTB          :
         :: total energy             -34.283750848425 Eh    ::
         :: gradient norm              0.000707231182 Eh/a0 ::
         :: HOMO-LUMO gap              4.044614899498 eV    ::
         :: SCC energy               -34.715733179163 Eh    ::
         :: -> dispersion             -0.019589386900 Eh    ::
         :: repulsion energy           0.432007248225 Eh    ::

    * Orbital Energies and Occupations

         #    Occupation            Energy/Eh            Energy/eV
      -------------------------------------------------------------
         1        2.0000           -1.0254514             -27.9040
       ...           ...                  ...                  ...
        19        2.0000           -0.4966485             -13.5145
        20        2.0000           -0.4904697             -13.3464
        21        2.0000           -0.4865899             -13.2408
        22        2.0000           -0.4675639             -12.7231
        23        2.0000           -0.4507190             -12.2647
        24        2.0000           -0.4460546             -12.1378
        25        2.0000           -0.4402563             -11.9800
        26        2.0000           -0.4296899             -11.6925
        27        2.0000           -0.4106907             -11.1755
        28        2.0000           -0.4088843             -11.1263
        29        2.0000           -0.4025659             -10.9544
        30        2.0000           -0.4023541             -10.9486
        31        2.0000           -0.3989670             -10.8564 (HOMO)
        32                         -0.2503302              -6.8118 (LUMO)
        33                         -0.2481676              -6.7530
        34                         -0.2049617              -5.5773
        35                         -0.1246142              -3.3909
        36                         -0.0640829              -1.7438
        37                          0.0065657               0.1787
        38                          0.0376151               1.0236
        39                          0.0397301               1.0811
        40                          0.0417507               1.1361
        41                          0.0581544               1.5825
        42                          0.0587870               1.5997
       ...                                ...                  ...
        65                          0.6336747              17.2432
      -------------------------------------------------------------
                  HL-Gap            0.1486369 Eh            4.0446 eV

     #   Z          covCN         q      C6AA      α(0)
     1   7 N        2.685    -0.306    27.885     7.843
     2   6 C        3.733     0.012    20.469     6.457
     3   6 C        3.810    -0.080    22.024     6.680
     4   6 C        2.970     0.014    27.702     8.633
     5   6 C        2.928    -0.037    28.929     8.821
     6   6 C        2.989    -0.036    28.883     8.816
     7   6 C        2.919     0.081    26.189     8.392
     8  35 Br       1.064    -0.172   189.810    22.214
     9   6 C        2.988    -0.035    28.852     8.811
    10   6 C        2.928    -0.037    28.915     8.818
    11  17 Cl       0.838    -0.481   114.983    16.404
    12   1 H        0.860     0.168     1.287     1.777
    13   1 H        0.860     0.168     1.284     1.775
    14   1 H        0.892     0.334     0.618     1.230
    15   1 H        0.923     0.027     2.634     2.538
    16   1 H        0.924     0.055     2.256     2.349
    17   1 H        0.925     0.075     2.033     2.230
    18   1 H        0.924     0.047     2.358     2.402
    19   1 H        0.926     0.042     2.428     2.437
    20   1 H        0.926     0.054     2.273     2.357
    21   1 H        0.926     0.056     2.248     2.344
    22   1 H        0.926     0.053     2.284     2.363

Wiberg/Mayer (AO) data.
largest (>0.10) Wiberg bond orders for each atom

     #   Z sym  total        # sym  WBO       # sym  WBO       # sym  WBO
 ---------------------------------------------------------------------------
     1   7 N    3.230 --     2 C    1.007    12 H    0.958    13 H    0.958
                            14 H    0.198
     2   6 C    3.974 --     1 N    1.007     3 C    0.988    16 H    0.974
                            15 H    0.973
     3   6 C    3.992 --     4 C    1.011     2 C    0.988    18 H    0.972
                            17 H    0.965
     4   6 C    3.989 --     5 C    1.412    10 C    1.406     3 C    1.011
     5   6 C    3.991 --     6 C    1.441     4 C    1.412    19 H    0.967
                             9 C    0.108
     6   6 C    3.990 --     5 C    1.441     7 C    1.411    20 H    0.968
                            10 C    0.109
     7   6 C    3.937 --     6 C    1.411     9 C    1.407     8 Br   0.979
     8  35 Br   1.111 --     7 C    0.979
     9   6 C    3.990 --    10 C    1.447     7 C    1.407    21 H    0.968
                             5 C    0.108
    10   6 C    3.991 --     9 C    1.447     4 C    1.406    22 H    0.966
                             6 C    0.109
    11  17 Cl   0.772 --    14 H    0.686
    12   1 H    0.971 --     1 N    0.958
    13   1 H    0.972 --     1 N    0.958
    14   1 H    0.889 --    11 Cl   0.686     1 N    0.198
    15   1 H    0.999 --     2 C    0.973
    16   1 H    0.997 --     2 C    0.974
    17   1 H    0.994 --     3 C    0.965
    18   1 H    0.997 --     3 C    0.972
    19   1 H    0.998 --     5 C    0.967
    20   1 H    0.997 --     6 C    0.968
    21   1 H    0.997 --     9 C    0.968
    22   1 H    0.997 --    10 C    0.966
 ---------------------------------------------------------------------------

molecular dipole:
                 x           y           z       tot (Debye)
 q only:       -0.254       0.176      -1.822
   full:       -0.882       0.154      -1.855       5.236

           -------------------------------------------------
          | TOTAL ENERGY              -34.283750848425 Eh   |
          | GRADIENT NORM               0.000707231182 Eh/α |
          | HOMO-LUMO GAP               4.044614899498 eV   |
           -------------------------------------------------

 * finished run on 2023/01/23 at 13:55:19.868
