   * xtb version 6.5.1 (fef0646) compiled by 'conda@b96dff2e9fd6' on 2023-01-04
          program call               : xtb init.xyz --opt -c 1 -u 0 -P 16 --alpb water

   ID    Z sym.   atoms
    1    7 N      1
    2    6 C      2-21
    3   16 S      22-25
    4    1 H      26-45

      * Solvation model:               ALPB
        Solvent                        water
        Solvent mass                       1.8000E+01 g/mol
          :  Hamiltonian                  GFN2-xTB          :
 * total energy  :   -68.5879374 Eh     change       -0.1030685E-08 Eh
 * total energy  :   -68.5956403 Eh     change       -0.7702807E-02 Eh
 * total energy  :   -68.5981089 Eh     change       -0.2468612E-02 Eh
 * total energy  :   -68.5987822 Eh     change       -0.6732948E-03 Eh
 * total energy  :   -68.5994810 Eh     change       -0.6988756E-03 Eh
 * total energy  :   -68.6000300 Eh     change       -0.5489267E-03 Eh
 * total energy  :   -68.6006190 Eh     change       -0.5890578E-03 Eh
 * total energy  :   -68.6011542 Eh     change       -0.5352029E-03 Eh
 * total energy  :   -68.6014985 Eh     change       -0.3442335E-03 Eh
 * total energy  :   -68.6017796 Eh     change       -0.2811262E-03 Eh
 * total energy  :   -68.6051870 Eh     change       -0.1374943E-04 Eh
 * total energy  :   -68.6051988 Eh     change       -0.1181547E-04 Eh
 * total energy  :   -68.6052115 Eh     change       -0.1265694E-04 Eh
 * total energy  :   -68.6052224 Eh     change       -0.1092551E-04 Eh
 * total energy  :   -68.6052328 Eh     change       -0.1042114E-04 Eh
 * total energy  :   -68.6052433 Eh     change       -0.1048821E-04 Eh
 * total energy  :   -68.6052532 Eh     change       -0.9870512E-05 Eh
 * total energy  :   -68.6052606 Eh     change       -0.7450593E-05 Eh
 * total energy  :   -68.6052638 Eh     change       -0.3199487E-05 Eh
   *** GEOMETRY OPTIMIZATION CONVERGED AFTER 44 ITERATIONS ***

 final structure:
================
45
 xtb: 6.5.1 (fef0646)
N            3.48002430333834       -0.10765489927993        1.35728692215682
C            2.83593309914898        0.54210814494078        0.19518655886376
C            3.72834426181351        1.65067481740093       -0.36910354208414
C            4.92392156340019        1.11727979221812       -1.08454675423201
C            5.20155865797181        1.16108974800768       -2.41709984642481
C            6.42107788597269        0.54692320777491       -2.76017683009887
C            7.09348984611941        0.02149346612614       -1.68739983000873
C            8.33328812486259       -0.67607381372233       -1.65234414334228
C            8.99025372823734       -1.19370080834850       -0.56422113764483
C           10.20097808895272       -1.83587019592273       -0.87305603637304
C           11.07137986396977       -2.46712058432916        0.15771597942205
C           10.47859197404423       -1.81059051081475       -2.22724806624231
C           11.57771432243430       -2.34695331817094       -2.95257050189321
C           11.79651380645691       -2.26258348605746       -4.30995926383868
C           12.96051415632916       -2.90688175953966       -4.73779381004526
C           13.66469695449435       -3.50301189288704       -3.71703773316766
C           14.87302225737712       -4.26526242662451       -3.74582194779284
C           15.80532662174085       -4.42845541140967       -4.74875914546262
C           15.76451378178260       -3.78372642623502       -6.09435499604182
C           16.85847870018733       -5.28774055711866       -4.35562348518030
C           16.73648100596242       -5.76311656900731       -3.09080883675811
S           15.32000247819546       -5.17543067903302       -2.32153554129932
S           12.86118527447222       -3.25002369833757       -2.19363777570707
S            9.22720910103995       -0.97925836660087       -3.11960642773630
S            6.21011101076127        0.30547606539912       -0.22676071980756
H            2.90992507872836       -0.88513918944630        1.70638852203331
H            3.62075311082381        0.57102606377273        2.11394878765410
H            4.40670440969841       -0.46605604533586        1.08324747315087
H            1.88562047425493        0.97433097635918        0.50534274462463
H            2.64956736261842       -0.20326817829074       -0.57720996656817
H            4.04930531753300        2.31108252774665        0.43738793467773
H            3.15023124725713        2.24267753218660       -1.07744707856581
H            4.55721394209356        1.62173144616450       -3.14392824214045
H            6.81017785113799        0.48354606298669       -3.76142018294497
H            8.61251112344505       -1.11362240792545        0.44031569393018
H           10.64425372634035       -2.32539578603978        1.14583635089863
H           12.06984525426051       -2.03123747367735        0.13711701945391
H           11.17966016393656       -3.53462197493490       -0.03251523592036
H           11.12485453457187       -1.74938157695519       -4.97674861985044
H           13.25608777940450       -2.94778003430800       -5.76789434310105
H           15.56292798892683       -2.71774558145152       -6.00554089903829
H           14.98719791210109       -4.23280637181467       -6.71226225527950
H           16.71919214428086       -3.92016899219391       -6.59511049332502
H           17.68020829830001       -5.53741007806821       -5.00288325803077
H           17.38835141120611       -6.42345075721288       -2.55595704092611

          :  Hamiltonian                  GFN2-xTB          :
         :: total energy             -68.605263846682 Eh    ::
         :: gradient norm              0.000377510015 Eh/a0 ::
         :: HOMO-LUMO gap              1.777198008325 eV    ::
         :: SCC energy               -69.635946893870 Eh    ::
         :: -> dispersion             -0.055784008584 Eh    ::
         :: -> Gsolv                  -0.122640994538 Eh    ::
         :: repulsion energy           1.031353110193 Eh    ::

    * Orbital Energies and Occupations

         #    Occupation            Energy/Eh            Energy/eV
      -------------------------------------------------------------
         1        2.0000           -0.7406491             -20.1541
       ...           ...                  ...                  ...
        52        2.0000           -0.4501777             -12.2500
        53        2.0000           -0.4486336             -12.2079
        54        2.0000           -0.4470047             -12.1636
        55        2.0000           -0.4438925             -12.0789
        56        2.0000           -0.4407362             -11.9930
        57        2.0000           -0.4368326             -11.8868
        58        2.0000           -0.4103763             -11.1669
        59        2.0000           -0.4026694             -10.9572
        60        2.0000           -0.4018748             -10.9356
        61        2.0000           -0.3977501             -10.8233
        62        2.0000           -0.3952445             -10.7552
        63        2.0000           -0.3816931             -10.3864
        64        2.0000           -0.3551358              -9.6637 (HOMO)
        65                         -0.2898250              -7.8865 (LUMO)
        66                         -0.2627919              -7.1509
        67                         -0.2335410              -6.3550
        68                         -0.2250660              -6.1244
        69                         -0.2219197              -6.0387
        70                         -0.2090668              -5.6890
        71                         -0.2064818              -5.6187
        72                         -0.1876881              -5.1073
        73                         -0.1844834              -5.0200
        74                         -0.1659604              -4.5160
        75                         -0.1539175              -4.1883
       ...                                ...                  ...
       140                          0.6999276              19.0460
      -------------------------------------------------------------
                  HL-Gap            0.0653108 Eh            1.7772 eV

     #   Z          covCN         q      C6AA      α(0)
     1   7 N        3.485    -0.163    24.520     7.354
     2   6 C        3.732    -0.041    21.406     6.604
     3   6 C        3.822    -0.096    22.305     6.721
     4   6 C        2.983     0.025    27.428     8.591
     5   6 C        3.111    -0.059    29.315     8.870
     6   6 C        3.122    -0.053    29.129     8.839
     7   6 C        3.018     0.009    27.802     8.649
     8   6 C        3.022     0.021    27.514     8.604
     9   6 C        3.100    -0.065    29.492     8.899
    10   6 C        3.121     0.001    27.820     8.638
    11   6 C        3.756    -0.121    22.881     6.820
    12   6 C        3.018     0.008    27.822     8.652
    13   6 C        3.030     0.018    27.583     8.615
    14   6 C        3.107    -0.057    29.272     8.865
    15   6 C        3.099    -0.058    29.319     8.874
    16   6 C        3.028     0.016    27.634     8.623
    17   6 C        3.033     0.005    27.887     8.662
    18   6 C        3.134    -0.005    27.938     8.652
    19   6 C        3.755    -0.114    22.739     6.799
    20   6 C        3.123    -0.056    29.208     8.850
    21   6 C        2.929    -0.025    28.631     8.775
    22  16 S        2.389    -0.060   143.525    20.164
    23  16 S        2.418    -0.055   143.317    20.149
    24  16 S        2.339    -0.099   145.188    20.280
    25  16 S        2.378    -0.030   142.277    20.076
    26   1 H        0.859     0.321     0.654     1.267
    27   1 H        0.859     0.315     0.670     1.282
    28   1 H        0.859     0.304     0.702     1.313
    29   1 H        0.925     0.126     1.568     1.958
    30   1 H        0.925     0.116     1.647     2.007
    31   1 H        0.924     0.106     1.732     2.058
    32   1 H        0.925     0.094     1.839     2.121
    33   1 H        0.926     0.048     2.343     2.394
    34   1 H        0.926     0.022     2.697     2.568
    35   1 H        0.926     0.065     2.137     2.286
    36   1 H        0.925     0.070     2.086     2.259
    37   1 H        0.925     0.058     2.226     2.333
    38   1 H        0.925     0.062     2.180     2.309
    39   1 H        0.926     0.039     2.466     2.456
    40   1 H        0.926     0.045     2.388     2.416
    41   1 H        0.925     0.054     2.273     2.357
    42   1 H        0.925     0.056     2.247     2.344
    43   1 H        0.925     0.057     2.239     2.340
    44   1 H        0.926     0.045     2.380     2.412
    45   1 H        0.927     0.055     2.261     2.351

Wiberg/Mayer (AO) data.
largest (>0.10) Wiberg bond orders for each atom

     #   Z sym  total        # sym  WBO       # sym  WBO       # sym  WBO
 ---------------------------------------------------------------------------
     1   7 N    3.649 --     2 C    0.973    27 H    0.885    26 H    0.883
                            28 H    0.874
     2   6 C    3.926 --     3 C    0.994     1 N    0.973    30 H    0.965
                            29 H    0.961
     3   6 C    3.983 --     4 C    1.026     2 C    0.994    32 H    0.959
                            31 H    0.952
     4   6 C    3.920 --     5 C    1.580    25 S    1.142     3 C    1.026
     5   6 C    3.985 --     4 C    1.580     6 C    1.297    33 H    0.962
     6   6 C    3.970 --     7 C    1.512     5 C    1.297    34 H    0.961
     7   6 C    3.955 --     6 C    1.512     8 C    1.165    25 S    1.107
     8   6 C    3.921 --     9 C    1.485     7 C    1.165    24 S    1.107
     9   6 C    3.979 --     8 C    1.485    10 C    1.307    35 H    0.958
    10   6 C    3.971 --    12 C    1.441     9 C    1.307    11 C    1.030
    11   6 C    3.992 --    10 C    1.030    36 H    0.979    37 H    0.962
                            38 H    0.961
    12   6 C    3.930 --    10 C    1.441    13 C    1.183    24 S    1.102
    13   6 C    3.936 --    14 C    1.463    12 C    1.183    23 S    1.118
    14   6 C    3.970 --    13 C    1.463    15 C    1.345    39 H    0.961
    15   6 C    3.984 --    16 C    1.472    14 C    1.345    40 H    0.960
    16   6 C    3.931 --    15 C    1.472    17 C    1.161    23 S    1.126
    17   6 C    3.944 --    18 C    1.474    16 C    1.161    22 S    1.118
    18   6 C    3.968 --    17 C    1.474    20 C    1.269    19 C    1.026
    19   6 C    3.995 --    18 C    1.026    43 H    0.982    41 H    0.972
                            42 H    0.965
    20   6 C    3.985 --    21 C    1.611    18 C    1.269    44 H    0.963
    21   6 C    3.924 --    20 C    1.611    22 S    1.188    45 H    0.969
    22  16 S    2.593 --    21 C    1.188    17 C    1.118
    23  16 S    2.587 --    16 C    1.126    13 C    1.118
    24  16 S    2.536 --     8 C    1.107    12 C    1.102
    25  16 S    2.569 --     4 C    1.142     7 C    1.107
    26   1 H    0.897 --     1 N    0.883
    27   1 H    0.901 --     1 N    0.885
    28   1 H    0.908 --     1 N    0.874
    29   1 H    0.983 --     2 C    0.961
    30   1 H    0.987 --     2 C    0.965
    31   1 H    0.987 --     3 C    0.952
    32   1 H    0.991 --     3 C    0.959
    33   1 H    0.997 --     5 C    0.962
    34   1 H    0.999 --     6 C    0.961
    35   1 H    0.995 --     9 C    0.958
    36   1 H    0.994 --    11 C    0.979
    37   1 H    0.996 --    11 C    0.962
    38   1 H    0.995 --    11 C    0.961
    39   1 H    0.998 --    14 C    0.961
    40   1 H    0.998 --    15 C    0.960
    41   1 H    0.996 --    19 C    0.972
    42   1 H    0.995 --    19 C    0.965
    43   1 H    0.996 --    19 C    0.982
    44   1 H    0.997 --    20 C    0.963
    45   1 H    0.996 --    21 C    0.969
 ---------------------------------------------------------------------------

molecular dipole:
                 x           y           z       tot (Debye)
 q only:        5.799       0.361       2.846
   full:        6.991       0.141       1.732      18.310

           -------------------------------------------------
          | TOTAL ENERGY              -68.605263846682 Eh   |
          | GRADIENT NORM               0.000377510015 Eh/α |
          | HOMO-LUMO GAP               1.777198008325 eV   |
           -------------------------------------------------

 * finished run on 2023/01/24 at 15:38:58.062
