   * xtb version 6.5.1 (fef0646) compiled by 'conda@b96dff2e9fd6' on 2023-01-04
          program call               : xtb init.xyz --opt -c 1 -u 0 -P 16 --input xtb.inp

   ID    Z sym.   atoms
    1    7 N      1
    2    6 C      2-21
    3   16 S      22-25
    4    1 H      26-45

          :  Hamiltonian                  GFN2-xTB          :
 * total energy  :   -68.4825085 Eh     change       -0.4969323E-08 Eh
 * total energy  :   -68.4906579 Eh     change       -0.8149441E-02 Eh
 * total energy  :   -68.4936593 Eh     change       -0.3001347E-02 Eh
 * total energy  :   -68.4946507 Eh     change       -0.9913874E-03 Eh
 * total energy  :   -68.4957025 Eh     change       -0.1051854E-02 Eh
 * total energy  :   -68.4965204 Eh     change       -0.8178178E-03 Eh
 * total energy  :   -68.4974194 Eh     change       -0.8990793E-03 Eh
 * total energy  :   -68.4982457 Eh     change       -0.8262418E-03 Eh
 * total energy  :   -68.4988202 Eh     change       -0.5745106E-03 Eh
 * total energy  :   -68.4992588 Eh     change       -0.4386004E-03 Eh
 * total energy  :   -68.5021213 Eh     change       -0.2238863E-04 Eh
 * total energy  :   -68.5021518 Eh     change       -0.3050220E-04 Eh
 * total energy  :   -68.5021912 Eh     change       -0.3943287E-04 Eh
 * total energy  :   -68.5022057 Eh     change       -0.1450957E-04 Eh
 * total energy  :   -68.5022320 Eh     change       -0.2622744E-04 Eh
 * total energy  :   -68.5022462 Eh     change       -0.1422159E-04 Eh
 * total energy  :   -68.5022581 Eh     change       -0.1190639E-04 Eh
 * total energy  :   -68.5022655 Eh     change       -0.7374721E-05 Eh
 * total energy  :   -68.5022703 Eh     change       -0.4820391E-05 Eh
   *** GEOMETRY OPTIMIZATION CONVERGED AFTER 42 ITERATIONS ***

 final structure:
================
45
 xtb: 6.5.1 (fef0646)
N            3.41743991704093       -0.98663462400139        0.57375858077491
C            2.67725300369030        0.26163020793499        0.23816419180057
C            3.59698929207727        1.46387533797430        0.47787116141129
C            4.79671997989681        1.40100019701290       -0.40736636431919
C            5.03832554496244        2.05185618750797       -1.57599081251294
C            6.24551346301556        1.68053222426469       -2.19488681152552
C            6.95199063855944        0.72011640179792       -1.51706497987863
C            8.18545862491156        0.10888384102598       -1.84431033508219
C            8.88547868918130       -0.85189448119644       -1.14737911462123
C           10.08276347471169       -1.24603389302232       -1.75195122201180
C           10.99405989660828       -2.26870832494770       -1.16579392854474
C           10.31505878978706       -0.57540327072023       -2.94648786998637
C           11.39367629798837       -0.68362356850550       -3.86065136833465
C           11.56343672779941        0.04501732482482       -5.02186354568157
C           12.71308531571336       -0.28693998734108       -5.73396206656850
C           13.45950840898481       -1.28415037975674       -5.13881095721139
C           14.67100927312096       -1.90259146757094       -5.56896208689410
C           15.57540222881182       -1.51252132486580       -6.53848333897195
C           15.49222071796039       -0.27427027838807       -7.36586294310859
C           16.64560090865125       -2.42685371351910       -6.65598406561548
C           16.56340838040071       -3.47929289105364       -5.80062578803004
S           15.17045683307698       -3.39597744135921       -4.80973147204355
S           12.71111112888306       -1.80739164977662       -3.66026003993490
S            9.03153884357888        0.54816132704267       -3.30337591140126
S            6.11701676460348        0.28904860666467       -0.03873980040000
H            2.95365564115185       -1.82562862594589        0.21363203893867
H            3.53251579331398       -1.07373834277451        1.58943255312735
H            4.38855154351519       -0.88870904317484        0.16032301677273
H            1.77648682499643        0.32909318469142        0.84834629478622
H            2.39420055913800        0.22104491991830       -0.81433118228571
H            3.89453527652249        1.49662298959810        1.52803437518009
H            3.04088018928982        2.37509826366446        0.25837507601253
H            4.37067970415251        2.78786637045025       -1.98678351171658
H            6.60230948009754        2.10123931214800       -3.11669047137722
H            8.53681849888222       -1.25732200827851       -0.21166315762575
H           10.60508293905155       -2.61334408425175       -0.21116972125662
H           11.98930140603228       -1.85404866400804       -1.00989521467385
H           11.09521419603812       -3.12372977575422       -1.83357023712257
H           10.86129021684079        0.79614564314371       -5.34042133940837
H           12.97119969736932        0.17251780610435       -6.66783695538260
H           15.25256176836020        0.59009618483589       -6.74890405256969
H           14.72535249498593       -0.37502065455200       -8.13402233138053
H           16.44382662607635       -0.09810693827754       -7.86024576133422
H           17.45110179519547       -2.29746920463749       -7.35652981245341
H           17.24020220498324       -4.30346169292639       -5.69126871753787

          :  Hamiltonian                  GFN2-xTB          :
         :: total energy             -68.502270276292 Eh    ::
         :: gradient norm              0.000823784630 Eh/a0 ::
         :: HOMO-LUMO gap              1.316300386917 eV    ::
         :: SCC energy               -69.526153192906 Eh    ::
         :: -> dispersion             -0.055979234787 Eh    ::
         :: repulsion energy           1.024527245771 Eh    ::

    * Orbital Energies and Occupations

         #    Occupation            Energy/Eh            Energy/eV
      -------------------------------------------------------------
         1        2.0000           -0.8682127             -23.6253
       ...           ...                  ...                  ...
        52        2.0000           -0.5235862             -14.2475
        53        2.0000           -0.5178325             -14.0909
        54        2.0000           -0.5150668             -14.0157
        55        2.0000           -0.5139086             -13.9842
        56        2.0000           -0.5120895             -13.9347
        57        2.0000           -0.5045866             -13.7305
        58        2.0000           -0.4995597             -13.5937
        59        2.0000           -0.4893001             -13.3145
        60        2.0000           -0.4748047             -12.9201
        61        2.0000           -0.4660618             -12.6822
        62        2.0000           -0.4561365             -12.4121
        63        2.0000           -0.4495071             -12.2317
        64        2.0000           -0.4238869             -11.5345 (HOMO)
        65                         -0.3755137             -10.2182 (LUMO)
        66                         -0.3385583              -9.2126
        67                         -0.3325533              -9.0492
        68                         -0.3102406              -8.4421
        69                         -0.2913772              -7.9288
        70                         -0.2846939              -7.7469
        71                         -0.2793582              -7.6017
        72                         -0.2652101              -7.2167
        73                         -0.2527193              -6.8768
        74                         -0.2466196              -6.7109
        75                         -0.2436783              -6.6308
       ...                                ...                  ...
       140                          0.6345866              17.2680
      -------------------------------------------------------------
                  HL-Gap            0.0483731 Eh            1.3163 eV

     #   Z          covCN         q      C6AA      α(0)
     1   7 N        3.482    -0.150    24.225     7.310
     2   6 C        3.733    -0.030    21.199     6.572
     3   6 C        3.821    -0.085    22.112     6.692
     4   6 C        2.983    -0.010    28.258     8.720
     5   6 C        3.088    -0.042    28.947     8.819
     6   6 C        3.104    -0.054    29.202     8.855
     7   6 C        3.018     0.034    27.208     8.556
     8   6 C        3.017     0.006    27.863     8.659
     9   6 C        3.101    -0.052    29.159     8.849
    10   6 C        3.120     0.001    27.818     8.638
    11   6 C        3.756    -0.112    22.693     6.792
    12   6 C        3.017     0.022    27.501     8.602
    13   6 C        3.032     0.015    27.651     8.625
    14   6 C        3.105    -0.044    28.954     8.817
    15   6 C        3.097    -0.052    29.165     8.851
    16   6 C        3.028     0.029    27.322     8.574
    17   6 C        3.034     0.004    27.891     8.662
    18   6 C        3.132     0.005    27.698     8.616
    19   6 C        3.755    -0.107    22.596     6.778
    20   6 C        3.122    -0.049    29.022     8.822
    21   6 C        2.931    -0.014    28.371     8.735
    22  16 S        2.375    -0.019   141.828    20.044
    23  16 S        2.403    -0.020   141.862    20.046
    24  16 S        2.345    -0.038   142.635    20.101
    25  16 S        2.362    -0.118   145.982    20.335
    26   1 H        0.859     0.261     0.843     1.438
    27   1 H        0.859     0.265     0.827     1.425
    28   1 H        0.884     0.285     0.758     1.362
    29   1 H        0.925     0.101     1.772     2.082
    30   1 H        0.924     0.105     1.743     2.064
    31   1 H        0.924     0.075     2.030     2.228
    32   1 H        0.925     0.096     1.825     2.113
    33   1 H        0.926     0.053     2.282     2.362
    34   1 H        0.926     0.058     2.219     2.330
    35   1 H        0.926     0.037     2.487     2.466
    36   1 H        0.925     0.053     2.279     2.361
    37   1 H        0.925     0.064     2.156     2.296
    38   1 H        0.925     0.062     2.172     2.305
    39   1 H        0.926     0.046     2.368     2.406
    40   1 H        0.926     0.052     2.291     2.367
    41   1 H        0.925     0.051     2.305     2.374
    42   1 H        0.925     0.053     2.283     2.363
    43   1 H        0.925     0.056     2.242     2.341
    44   1 H        0.926     0.049     2.338     2.391
    45   1 H        0.926     0.055     2.255     2.348

Wiberg/Mayer (AO) data.
largest (>0.10) Wiberg bond orders for each atom

     #   Z sym  total        # sym  WBO       # sym  WBO       # sym  WBO
 ---------------------------------------------------------------------------
     1   7 N    3.658 --     2 C    0.940    26 H    0.917    27 H    0.914
                            28 H    0.825
     2   6 C    3.901 --     3 C    0.991    30 H    0.968    29 H    0.968
                             1 N    0.940
     3   6 C    3.982 --     4 C    1.022     2 C    0.991    31 H    0.964
                            32 H    0.957
     4   6 C    3.886 --     5 C    1.592    25 S    1.085     3 C    1.022
     5   6 C    3.986 --     4 C    1.592     6 C    1.293    33 H    0.960
     6   6 C    3.957 --     7 C    1.502     5 C    1.293    34 H    0.957
     7   6 C    3.937 --     6 C    1.502     8 C    1.195    25 S    1.067
     8   6 C    3.924 --     9 C    1.444     7 C    1.195    24 S    1.103
     9   6 C    3.981 --     8 C    1.444    10 C    1.345    35 H    0.960
    10   6 C    3.967 --    12 C    1.403     9 C    1.345    11 C    1.030
    11   6 C    3.993 --    10 C    1.030    36 H    0.981    37 H    0.963
                            38 H    0.962
    12   6 C    3.934 --    10 C    1.403    13 C    1.204    24 S    1.126
    13   6 C    3.934 --    14 C    1.436    12 C    1.204    23 S    1.116
    14   6 C    3.968 --    13 C    1.436    15 C    1.372    39 H    0.959
    15   6 C    3.977 --    16 C    1.443    14 C    1.372    40 H    0.959
    16   6 C    3.929 --    15 C    1.443    17 C    1.173    23 S    1.146
    17   6 C    3.942 --    18 C    1.456    16 C    1.173    22 S    1.121
    18   6 C    3.964 --    17 C    1.456    20 C    1.281    19 C    1.028
    19   6 C    3.995 --    18 C    1.028    43 H    0.982    41 H    0.972
                            42 H    0.964
    20   6 C    3.984 --    21 C    1.598    18 C    1.281    44 H    0.963
    21   6 C    3.925 --    20 C    1.598    22 S    1.206    45 H    0.969
    22  16 S    2.617 --    21 C    1.206    17 C    1.121
    23  16 S    2.608 --    16 C    1.146    13 C    1.116
    24  16 S    2.562 --    12 C    1.126     8 C    1.103
    25  16 S    2.537 --     4 C    1.085     7 C    1.067
    26   1 H    0.932 --     1 N    0.917
    27   1 H    0.930 --     1 N    0.914
    28   1 H    0.918 --     1 N    0.825
    29   1 H    0.988 --     2 C    0.968
    30   1 H    0.989 --     2 C    0.968
    31   1 H    0.993 --     3 C    0.964
    32   1 H    0.990 --     3 C    0.957
    33   1 H    0.997 --     5 C    0.960
    34   1 H    0.996 --     6 C    0.957
    35   1 H    0.998 --     9 C    0.960
    36   1 H    0.996 --    11 C    0.981
    37   1 H    0.994 --    11 C    0.963
    38   1 H    0.994 --    11 C    0.962
    39   1 H    0.997 --    14 C    0.959
    40   1 H    0.997 --    15 C    0.959
    41   1 H    0.996 --    19 C    0.972
    42   1 H    0.995 --    19 C    0.964
    43   1 H    0.996 --    19 C    0.982
    44   1 H    0.997 --    20 C    0.963
    45   1 H    0.996 --    21 C    0.969
 ---------------------------------------------------------------------------

molecular dipole:
                 x           y           z       tot (Debye)
 q only:        9.377      -1.553      -0.850
   full:        9.901      -1.348      -1.305      25.614

           -------------------------------------------------
          | TOTAL ENERGY              -68.502270276292 Eh   |
          | GRADIENT NORM               0.000823784630 Eh/α |
          | HOMO-LUMO GAP               1.316300386917 eV   |
           -------------------------------------------------

 * finished run on 2023/01/23 at 19:29:02.637
