   * xtb version 6.5.1 (fef0646) compiled by 'conda@b96dff2e9fd6' on 2023-01-04
          program call               : xtb init.xyz --opt -c 0 -u 0 -P 16

   ID    Z sym.   atoms
    1    7 N      1
    2    6 C      2-9
    3   17 Cl     10
    4    1 H      11-28

          :  Hamiltonian                  GFN2-xTB          :
 * total energy  :   -33.7767169 Eh     change       -0.2334524E-08 Eh
 * total energy  :   -33.7792608 Eh     change       -0.2543840E-02 Eh
 * total energy  :   -33.7853761 Eh     change       -0.6115324E-02 Eh
 * total energy  :   -33.7913174 Eh     change       -0.5941287E-02 Eh
 * total energy  :   -33.7955284 Eh     change       -0.4210990E-02 Eh
 * total energy  :   -33.7989914 Eh     change       -0.3462988E-02 Eh
 * total energy  :   -33.8003436 Eh     change       -0.1352249E-02 Eh
 * total energy  :   -33.8015313 Eh     change       -0.1187691E-02 Eh
 * total energy  :   -33.8024934 Eh     change       -0.9620578E-03 Eh
 * total energy  :   -33.8028231 Eh     change       -0.3297324E-03 Eh
 * total energy  :   -33.8040644 Eh     change       -0.5116523E-04 Eh
 * total energy  :   -33.8041078 Eh     change       -0.4343296E-04 Eh
 * total energy  :   -33.8041577 Eh     change       -0.4989833E-04 Eh
 * total energy  :   -33.8041945 Eh     change       -0.3674725E-04 Eh
 * total energy  :   -33.8042243 Eh     change       -0.2984404E-04 Eh
 * total energy  :   -33.8042407 Eh     change       -0.1640171E-04 Eh
 * total energy  :   -33.8042471 Eh     change       -0.6389486E-05 Eh
 * total energy  :   -33.8042519 Eh     change       -0.4805776E-05 Eh
 * total energy  :   -33.8042564 Eh     change       -0.4519640E-05 Eh
   *** GEOMETRY OPTIMIZATION CONVERGED AFTER 34 ITERATIONS ***

 final structure:
================
28
 xtb: 6.5.1 (fef0646)
N            1.06473363484846       -0.14616300456319        0.14916269773605
C            2.52817864240252       -0.17146392055365        0.16548356810513
C            3.05329073204622       -0.30140541431931       -1.26150495052944
C            4.57344138082528       -0.14681654562489       -1.37387872740185
C            4.97472901213549       -0.01798792179963       -2.84562682120495
C            6.48323066748156        0.15279332232376       -2.99454545104440
C            7.21778244751796       -1.02516607499383       -2.36362362737521
C            6.83290760157404       -1.15480410012294       -0.89413339910280
C            5.32302889074132       -1.32363422429158       -0.74531877940190
Cl           0.06652347450029        2.09305374494342       -1.45332938110973
H            0.68640095138275       -0.05607892196973        1.08529264906242
H            0.69800555166140       -0.99335267035502       -0.27160206292939
H            0.55253675612606        1.04831776976201       -0.69831191225968
H            2.90986205347927       -0.99042922299812        0.78938051241123
H            2.86645807087379        0.77362727660053        0.59642575535346
H            2.57326814447390        0.47245664719833       -1.86216342362501
H            2.75825529584085       -1.27150622569057       -1.66909079431086
H            4.86753092129802        0.77177344880202       -0.85410230947718
H            4.46110516802077        0.83624537628855       -3.29086343430521
H            4.65756642075099       -0.91501492672799       -3.38288015879639
H            6.79339639570807        1.07773061519345       -2.50283079584736
H            6.74337293519280        0.23293751469185       -4.05199472181346
H            8.29696211858387       -0.88741112466918       -2.45637601433470
H            6.95064393513496       -1.94384875642783       -2.89115574622126
H            7.15004962759751       -0.25772407502659       -0.35726424978576
H            7.34507596664810       -2.00989316393610       -0.44753106895018
H            5.07509183658569       -1.40599788514189        0.31447419983047
H            5.01365136657613       -2.24929753658660       -1.23689155266897

          :  Hamiltonian                  GFN2-xTB          :
         :: total energy             -33.804256430033 Eh    ::
         :: gradient norm              0.000656060029 Eh/a0 ::
         :: HOMO-LUMO gap              9.148060676166 eV    ::
         :: SCC energy               -34.210366570727 Eh    ::
         :: -> dispersion             -0.020723432500 Eh    ::
         :: repulsion energy           0.406041947093 Eh    ::

    * Orbital Energies and Occupations

         #    Occupation            Energy/Eh            Energy/eV
      -------------------------------------------------------------
         1        2.0000           -1.0152180             -27.6255
       ...           ...                  ...                  ...
        19        2.0000           -0.4818432             -13.1116
        20        2.0000           -0.4665970             -12.6968
        21        2.0000           -0.4631693             -12.6035
        22        2.0000           -0.4581995             -12.4682
        23        2.0000           -0.4489046             -12.2153
        24        2.0000           -0.4393494             -11.9553
        25        2.0000           -0.4349735             -11.8362
        26        2.0000           -0.4230031             -11.5105
        27        2.0000           -0.4163945             -11.3307
        28        2.0000           -0.4130261             -11.2390
        29        2.0000           -0.3966347             -10.7930
        30        2.0000           -0.3923089             -10.6753
        31        2.0000           -0.3922118             -10.6726 (HOMO)
        32                         -0.0560268              -1.5246 (LUMO)
        33                          0.0091335               0.2485
        34                          0.0638737               1.7381
        35                          0.0676571               1.8410
        36                          0.0696372               1.8949
        37                          0.0717993               1.9538
        38                          0.0753136               2.0494
        39                          0.0755674               2.0563
        40                          0.0873422               2.3767
        41                          0.0901670               2.4536
        42                          0.1025446               2.7904
       ...                                ...                  ...
        63                          0.3108562               8.4588
      -------------------------------------------------------------
                  HL-Gap            0.3361850 Eh            9.1481 eV

     #   Z          covCN         q      C6AA      α(0)
     1   7 N        2.703    -0.305    27.836     7.836
     2   6 C        3.731     0.008    20.535     6.469
     3   6 C        3.807    -0.079    21.996     6.676
     4   6 C        3.854    -0.020    20.889     6.500
     5   6 C        3.809    -0.061    21.666     6.626
     6   6 C        3.805    -0.056    21.571     6.612
     7   6 C        3.806    -0.056    21.583     6.614
     8   6 C        3.805    -0.055    21.561     6.610
     9   6 C        3.808    -0.060    21.648     6.623
    10  17 Cl       0.837    -0.490   115.321    16.428
    11   1 H        0.860     0.166     1.299     1.785
    12   1 H        0.860     0.168     1.286     1.777
    13   1 H        0.908     0.331     0.625     1.236
    14   1 H        0.923     0.025     2.662     2.552
    15   1 H        0.924     0.052     2.301     2.372
    16   1 H        0.924     0.063     2.164     2.301
    17   1 H        0.924     0.036     2.498     2.472
    18   1 H        0.924     0.034     2.536     2.490
    19   1 H        0.924     0.033     2.546     2.495
    20   1 H        0.924     0.033     2.540     2.493
    21   1 H        0.924     0.032     2.559     2.502
    22   1 H        0.924     0.029     2.601     2.522
    23   1 H        0.924     0.027     2.630     2.536
    24   1 H        0.924     0.032     2.561     2.503
    25   1 H        0.924     0.031     2.575     2.510
    26   1 H        0.924     0.027     2.632     2.537
    27   1 H        0.924     0.024     2.676     2.558
    28   1 H        0.924     0.032     2.553     2.499

Wiberg/Mayer (AO) data.
largest (>0.10) Wiberg bond orders for each atom

     #   Z sym  total        # sym  WBO       # sym  WBO       # sym  WBO
 ---------------------------------------------------------------------------
     1   7 N    3.245 --     2 C    1.002    11 H    0.959    12 H    0.958
                            13 H    0.213
     2   6 C    3.972 --     3 C    1.006     1 N    1.002    15 H    0.974
                            14 H    0.971
     3   6 C    3.992 --     2 C    1.006     4 C    0.994    17 H    0.975
                            16 H    0.970
     4   6 C    3.995 --     9 C    0.998     5 C    0.996     3 C    0.994
                            18 H    0.967
     5   6 C    3.997 --     6 C    1.008     4 C    0.996    20 H    0.977
                            19 H    0.976
     6   6 C    3.998 --     7 C    1.009     5 C    1.008    21 H    0.977
                            22 H    0.977
     7   6 C    3.998 --     8 C    1.009     6 C    1.009    23 H    0.978
                            24 H    0.977
     8   6 C    3.998 --     7 C    1.009     9 C    1.008    25 H    0.978
                            26 H    0.978
     9   6 C    3.998 --     8 C    1.008     4 C    0.998    28 H    0.976
                            27 H    0.975
    10  17 Cl   0.763 --    13 H    0.672
    11   1 H    0.972 --     1 N    0.959
    12   1 H    0.972 --     1 N    0.958
    13   1 H    0.890 --    10 Cl   0.672     1 N    0.213
    14   1 H    0.999 --     2 C    0.971
    15   1 H    0.997 --     2 C    0.974
    16   1 H    0.996 --     3 C    0.970
    17   1 H    0.999 --     3 C    0.975
    18   1 H    0.999 --     4 C    0.967
    19   1 H    0.999 --     5 C    0.976
    20   1 H    0.999 --     5 C    0.977
    21   1 H    0.999 --     6 C    0.977
    22   1 H    0.999 --     6 C    0.977
    23   1 H    0.999 --     7 C    0.978
    24   1 H    0.999 --     7 C    0.977
    25   1 H    0.999 --     8 C    0.978
    26   1 H    0.999 --     8 C    0.978
    27   1 H    0.999 --     9 C    0.975
    28   1 H    0.999 --     9 C    0.976
 ---------------------------------------------------------------------------

molecular dipole:
                 x           y           z       tot (Debye)
 q only:        0.915      -1.479       0.902
   full:        0.714      -1.443       0.932       4.728

           -------------------------------------------------
          | TOTAL ENERGY              -33.804256430033 Eh   |
          | GRADIENT NORM               0.000656060029 Eh/α |
          | HOMO-LUMO GAP               9.148060676166 eV   |
           -------------------------------------------------

 * finished run on 2023/01/23 at 14:10:46.825
