   * xtb version 6.5.1 (fef0646) compiled by 'conda@b96dff2e9fd6' on 2023-01-04
          program call               : xtb init.xyz --opt -c 0 -u 0 -P 16 --alpb water

   ID    Z sym.   atoms
    1    7 N      1
    2    6 C      2-7, 9, 10
    3    9 F      8
    4   17 Cl     11
    5    1 H      12-22

      * Solvation model:               ALPB
        Solvent                        water
        Solvent mass                       1.8000E+01 g/mol
          :  Hamiltonian                  GFN2-xTB          :
 * total energy  :   -34.9709538 Eh     change       -0.9451497E-09 Eh
 * total energy  :   -34.9758872 Eh     change       -0.4933388E-02 Eh
 * total energy  :   -34.9770705 Eh     change       -0.1183305E-02 Eh
 * total energy  :   -34.9774079 Eh     change       -0.3373951E-03 Eh
 * total energy  :   -34.9776017 Eh     change       -0.1938363E-03 Eh
 * total energy  :   -34.9777567 Eh     change       -0.1549693E-03 Eh
 * total energy  :   -34.9778820 Eh     change       -0.1252859E-03 Eh
 * total energy  :   -34.9779746 Eh     change       -0.9263297E-04 Eh
 * total energy  :   -34.9780334 Eh     change       -0.5875385E-04 Eh
 * total energy  :   -34.9780883 Eh     change       -0.5494396E-04 Eh
 * total energy  :   -34.9782374 Eh     change       -0.2950208E-04 Eh
 * total energy  :   -34.9782590 Eh     change       -0.2156303E-04 Eh
 * total energy  :   -34.9782710 Eh     change       -0.1202864E-04 Eh
 * total energy  :   -34.9782848 Eh     change       -0.1378667E-04 Eh
 * total energy  :   -34.9782952 Eh     change       -0.1036290E-04 Eh
 * total energy  :   -34.9783064 Eh     change       -0.1119478E-04 Eh
 * total energy  :   -34.9783156 Eh     change       -0.9288394E-05 Eh
 * total energy  :   -34.9783225 Eh     change       -0.6846531E-05 Eh
 * total energy  :   -34.9783274 Eh     change       -0.4901484E-05 Eh
   *** GEOMETRY OPTIMIZATION CONVERGED AFTER 21 ITERATIONS ***

 final structure:
================
22
 xtb: 6.5.1 (fef0646)
N            1.13229375618878        0.29191470113710        0.33486242756479
C            2.59545801865290        0.48436609836021        0.34719386489818
C            3.08461927086874        0.78602397889879       -1.06989507469014
C            4.58576098448935        0.77559276015868       -1.12668703895350
C            5.26962045482739       -0.43419514861443       -1.17633686481560
C            6.65195580597059       -0.46920960738752       -1.20636708463265
C            7.33858118559989        0.72918810843016       -1.18453306917949
F            8.70750032307363        0.70567438984703       -1.21857689244537
C            6.69469661836864        1.94876661535283       -1.13404853020927
C            5.31056420766712        1.96040213951682       -1.10262864278984
Cl           0.48755634931524       -1.90359697784960       -1.69883367163983
H            0.77673098506971        0.03428811556803        1.25799265006667
H            0.88775724288212       -0.48114569700596       -0.33598283328475
H            0.65681024303206        1.13476109599975        0.00400733837941
H            3.06578249835139       -0.43360357732977        0.69829499235407
H            2.85715698105002        1.30094126542475        1.02083876385241
H            2.71283871748538        1.75556590695364       -1.39817977281152
H            2.68627357673920        0.01598834813642       -1.73296390303130
H            4.71447983655259       -1.35935936121792       -1.20450528367576
H            7.19510469633435       -1.39943411327852       -1.25029563003078
H            7.27018591991580        2.85999502449432       -1.12260450099318
H            4.79504232756500        2.90712593440530       -1.06733124393215

          :  Hamiltonian                  GFN2-xTB          :
         :: total energy             -34.978327396979 Eh    ::
         :: gradient norm              0.000386878965 Eh/a0 ::
         :: HOMO-LUMO gap              4.487202480695 eV    ::
         :: SCC energy               -35.422428631105 Eh    ::
         :: -> dispersion             -0.016861738973 Eh    ::
         :: -> Gsolv                  -0.079512717082 Eh    ::
         :: repulsion energy           0.444085119157 Eh    ::

    * Orbital Energies and Occupations

         #    Occupation            Energy/Eh            Energy/eV
      -------------------------------------------------------------
         1        2.0000           -1.0061785             -27.3795
       ...           ...                  ...                  ...
        19        2.0000           -0.4899327             -13.3317
        20        2.0000           -0.4843262             -13.1792
        21        2.0000           -0.4833605             -13.1529
        22        2.0000           -0.4740479             -12.8995
        23        2.0000           -0.4615707             -12.5600
        24        2.0000           -0.4436423             -12.0721
        25        2.0000           -0.4395724             -11.9614
        26        2.0000           -0.4246915             -11.5564
        27        2.0000           -0.4141587             -11.2698
        28        2.0000           -0.4038242             -10.9886
        29        2.0000           -0.4010074             -10.9120
        30        2.0000           -0.3998908             -10.8816
        31        2.0000           -0.3979623             -10.8291 (HOMO)
        32                         -0.2330607              -6.3419 (LUMO)
        33                         -0.2291303              -6.2350
        34                         -0.1025705              -2.7911
        35                         -0.0250972              -0.6829
        36                          0.0345070               0.9390
        37                          0.0785131               2.1364
        38                          0.1006808               2.7397
        39                          0.1030968               2.8054
        40                          0.1170962               3.1864
        41                          0.1177436               3.2040
        42                          0.1194097               3.2493
       ...                                ...                  ...
        60                          0.6540504              17.7976
      -------------------------------------------------------------
                  HL-Gap            0.1649017 Eh            4.4872 eV

     #   Z          covCN         q      C6AA      α(0)
     1   7 N        3.484    -0.170    24.670     7.377
     2   6 C        3.734    -0.023    21.076     6.552
     3   6 C        3.810    -0.090    22.206     6.708
     4   6 C        2.969     0.019    27.582     8.615
     5   6 C        2.931    -0.039    28.981     8.829
     6   6 C        2.914    -0.053    29.319     8.879
     7   6 C        2.790     0.164    24.459     8.101
     8   9 F        0.786    -0.288    12.179     4.122
     9   6 C        2.915    -0.054    29.349     8.884
    10   6 C        2.930    -0.043    29.070     8.842
    11  17 Cl       0.046    -0.947   124.883    17.008
    12   1 H        0.859     0.306     0.696     1.307
    13   1 H        0.903     0.297     0.720     1.328
    14   1 H        0.859     0.300     0.713     1.323
    15   1 H        0.925     0.099     1.798     2.097
    16   1 H        0.924     0.109     1.706     2.043
    17   1 H        0.925     0.078     1.998     2.211
    18   1 H        0.924     0.079     1.986     2.204
    19   1 H        0.926     0.060     2.196     2.317
    20   1 H        0.926     0.058     2.222     2.331
    21   1 H        0.926     0.066     2.131     2.283
    22   1 H        0.926     0.074     2.042     2.235

Wiberg/Mayer (AO) data.
largest (>0.10) Wiberg bond orders for each atom

     #   Z sym  total        # sym  WBO       # sym  WBO       # sym  WBO
 ---------------------------------------------------------------------------
     1   7 N    3.643 --     2 C    0.972    14 H    0.895    12 H    0.892
                            13 H    0.831
     2   6 C    3.932 --     3 C    0.992     1 N    0.972    15 H    0.968
                            16 H    0.967
     3   6 C    3.989 --     4 C    1.011     2 C    0.992    17 H    0.970
                            18 H    0.961
     4   6 C    3.989 --    10 C    1.416     5 C    1.407     3 C    1.011
     5   6 C    3.989 --     6 C    1.447     4 C    1.407    19 H    0.967
                             9 C    0.112
     6   6 C    3.989 --     5 C    1.447     7 C    1.401    20 H    0.967
                            10 C    0.110
     7   6 C    3.858 --     9 C    1.408     6 C    1.401     8 F    0.908
     8   9 F    1.022 --     7 C    0.908
     9   6 C    3.987 --    10 C    1.437     7 C    1.408    21 H    0.966
                             5 C    0.112
    10   6 C    3.987 --     9 C    1.437     4 C    1.416    22 H    0.965
                             6 C    0.110
    11  17 Cl   0.102
    12   1 H    0.906 --     1 N    0.892
    13   1 H    0.912 --     1 N    0.831
    14   1 H    0.910 --     1 N    0.895
    15   1 H    0.990 --     2 C    0.968
    16   1 H    0.988 --     2 C    0.967
    17   1 H    0.994 --     3 C    0.970
    18   1 H    0.993 --     3 C    0.961
    19   1 H    0.996 --     5 C    0.967
    20   1 H    0.996 --     6 C    0.967
    21   1 H    0.995 --     9 C    0.966
    22   1 H    0.995 --    10 C    0.965
 ---------------------------------------------------------------------------

molecular dipole:
                 x           y           z       tot (Debye)
 q only:       -0.170       4.045       3.622
   full:       -0.360       3.438       3.140      11.869

           -------------------------------------------------
          | TOTAL ENERGY              -34.978327396979 Eh   |
          | GRADIENT NORM               0.000386878965 Eh/α |
          | HOMO-LUMO GAP               4.487202480695 eV   |
           -------------------------------------------------

 * finished run on 2023/01/24 at 14:57:40.660
