   * xtb version 6.5.1 (fef0646) compiled by 'conda@b96dff2e9fd6' on 2023-01-04
          program call               : xtb init.xyz --opt -c 1 -u 0 -P 16 --alpb water

   ID    Z sym.   atoms
    1    7 N      1
    2    6 C      2-7, 9-11
    3    8 O      8
    4    1 H      12-25

      * Solvation model:               ALPB
        Solvent                        water
        Solvent mass                       1.8000E+01 g/mol
          :  Hamiltonian                  GFN2-xTB          :
 * total energy  :   -33.0635292 Eh     change       -0.1287717E-09 Eh
 * total energy  :   -33.0657780 Eh     change       -0.2248858E-02 Eh
 * total energy  :   -33.0660836 Eh     change       -0.3055517E-03 Eh
 * total energy  :   -33.0661268 Eh     change       -0.4323620E-04 Eh
 * total energy  :   -33.0661590 Eh     change       -0.3215800E-04 Eh
 * total energy  :   -33.0661727 Eh     change       -0.1371509E-04 Eh
 * total energy  :   -33.0662057 Eh     change       -0.3304432E-04 Eh
 * total energy  :   -33.0662282 Eh     change       -0.2245186E-04 Eh
 * total energy  :   -33.0662534 Eh     change       -0.2526370E-04 Eh
 * total energy  :   -33.0662824 Eh     change       -0.2895827E-04 Eh
 * total energy  :   -33.0665993 Eh     change       -0.2201359E-04 Eh
 * total energy  :   -33.0666151 Eh     change       -0.1585564E-04 Eh
 * total energy  :   -33.0666209 Eh     change       -0.5809056E-05 Eh
 * total energy  :   -33.0666291 Eh     change       -0.8172668E-05 Eh
 * total energy  :   -33.0666379 Eh     change       -0.8800846E-05 Eh
 * total energy  :   -33.0666453 Eh     change       -0.7450218E-05 Eh
 * total energy  :   -33.0666513 Eh     change       -0.5994800E-05 Eh
 * total energy  :   -33.0666564 Eh     change       -0.5032115E-05 Eh
 * total energy  :   -33.0666612 Eh     change       -0.4823600E-05 Eh
   *** GEOMETRY OPTIMIZATION CONVERGED AFTER 28 ITERATIONS ***

 final structure:
================
25
 xtb: 6.5.1 (fef0646)
N            2.96826854330199        0.28087550119629       -2.87701727853678
C            2.52310169637154        1.44120506768168       -2.06806760552626
C            3.04790960425778        1.31153902851595       -0.63863444061929
C            4.55318201173151        1.37091747931126       -0.59566994282869
C            5.21496935584673        2.57866504122523       -0.76809482488523
C            6.59693259347787        2.65408007568467       -0.74511753257419
C            7.34846285026629        1.50159259011211       -0.54162176529768
O            8.71345931828045        1.45128223115007       -0.49034069200086
C            9.44228944680702        2.65052143762383       -0.64657900065304
C            6.69212688437549        0.28262824809813       -0.36899167361552
C            5.31423231062510        0.22219517838597       -0.39937942122094
H            2.69875723130956        0.39089864710940       -3.86070394396761
H            2.55510682250425       -0.58610100237207       -2.51401910478134
H            3.99096237127057        0.19797182600780       -2.81566013507167
H            1.43469646108493        1.48052967927393       -2.06275384353843
H            2.90890202864055        2.35592169639590       -2.51699195261771
H            2.70456695102872        0.37744569190566       -0.19497747702283
H            2.63970240830797        2.12975282999087       -0.04627800627326
H            4.64935878600930        3.48717744908625       -0.91107974282192
H            7.07631886165778        3.61109714359557       -0.87430738539349
H           10.48919968176150        2.36742178294698       -0.56109163672238
H            9.19603615878539        3.37103848712700        0.13845321798529
H            9.26509898781625        3.09704813469089       -1.62895986421096
H            7.29116015258954       -0.59902214701542       -0.20434316972693
H            4.83283848189163       -0.73092209772789       -0.24068277807768

          :  Hamiltonian                  GFN2-xTB          :
         :: total energy             -33.066661191669 Eh    ::
         :: gradient norm              0.000210223826 Eh/a0 ::
         :: HOMO-LUMO gap              4.171366136794 eV    ::
         :: SCC energy               -33.566621123995 Eh    ::
         :: -> dispersion             -0.018620295861 Eh    ::
         :: -> Gsolv                  -0.117878959226 Eh    ::
         :: repulsion energy           0.499905955352 Eh    ::

    * Orbital Energies and Occupations

         #    Occupation            Energy/Eh            Energy/eV
      -------------------------------------------------------------
         1        2.0000           -0.7184369             -19.5497
       ...           ...                  ...                  ...
        18        2.0000           -0.4970424             -13.5252
        19        2.0000           -0.4944120             -13.4536
        20        2.0000           -0.4911951             -13.3661
        21        2.0000           -0.4830566             -13.1446
        22        2.0000           -0.4795236             -13.0485
        23        2.0000           -0.4750272             -12.9261
        24        2.0000           -0.4604848             -12.5304
        25        2.0000           -0.4540211             -12.3545
        26        2.0000           -0.4445921             -12.0980
        27        2.0000           -0.4364868             -11.8774
        28        2.0000           -0.4202889             -11.4366
        29        2.0000           -0.4083107             -11.1107
        30        2.0000           -0.3801398             -10.3441 (HOMO)
        31                         -0.2268449              -6.1728 (LUMO)
        32                         -0.2184515              -5.9444
        33                         -0.0953846              -2.5955
        34                         -0.0449507              -1.2232
        35                          0.0260368               0.7085
        36                          0.0602614               1.6398
        37                          0.0818135               2.2263
        38                          0.1015973               2.7646
        39                          0.1141324               3.1057
        40                          0.1148969               3.1265
        41                          0.1330446               3.6203
       ...                                ...                  ...
        58                          0.6592306              17.9386
      -------------------------------------------------------------
                  HL-Gap            0.1532949 Eh            4.1714 eV

     #   Z          covCN         q      C6AA      α(0)
     1   7 N        3.485    -0.155    24.344     7.328
     2   6 C        3.733    -0.038    21.337     6.593
     3   6 C        3.808    -0.095    22.305     6.723
     4   6 C        2.968    -0.002    28.070     8.690
     5   6 C        2.926    -0.047    29.173     8.858
     6   6 C        2.916    -0.070    29.752     8.944
     7   6 C        2.864     0.138    24.993     8.195
     8   8 O        1.705    -0.314    19.231     5.921
     9   6 C        3.642     0.028    20.451     6.502
    10   6 C        2.919    -0.062    29.554     8.915
    11   6 C        2.924    -0.053    29.305     8.878
    12   1 H        0.859     0.317     0.665     1.278
    13   1 H        0.859     0.310     0.684     1.296
    14   1 H        0.859     0.293     0.733     1.341
    15   1 H        0.925     0.117     1.637     2.001
    16   1 H        0.925     0.109     1.701     2.040
    17   1 H        0.925     0.081     1.969     2.194
    18   1 H        0.925     0.082     1.961     2.190
    19   1 H        0.926     0.054     2.275     2.358
    20   1 H        0.926     0.035     2.518     2.482
    21   1 H        0.925     0.067     2.115     2.274
    22   1 H        0.924     0.047     2.356     2.400
    23   1 H        0.924     0.052     2.294     2.369
    24   1 H        0.926     0.042     2.426     2.436
    25   1 H        0.926     0.063     2.159     2.298

Wiberg/Mayer (AO) data.
largest (>0.10) Wiberg bond orders for each atom

     #   Z sym  total        # sym  WBO       # sym  WBO       # sym  WBO
 ---------------------------------------------------------------------------
     1   7 N    3.657 --     2 C    0.965    14 H    0.893    13 H    0.889
                            12 H    0.886
     2   6 C    3.925 --     3 C    0.999    16 H    0.966     1 N    0.965
                            15 H    0.965
     3   6 C    3.988 --     4 C    1.009     2 C    0.999    17 H    0.968
                            18 H    0.959
     4   6 C    3.987 --     5 C    1.414    11 C    1.394     3 C    1.009
     5   6 C    3.989 --     6 C    1.444     4 C    1.414    19 H    0.967
                            10 C    0.110
     6   6 C    3.988 --     5 C    1.444     7 C    1.374    20 H    0.966
                            11 C    0.101
     7   6 C    3.922 --     6 C    1.374    10 C    1.352     8 O    1.044
     8   8 O    2.199 --     7 C    1.044     9 C    0.978
     9   6 C    3.939 --    21 H    0.979     8 O    0.978    22 H    0.977
                            23 H    0.976
    10   6 C    3.986 --    11 C    1.465     7 C    1.352    24 H    0.969
                             5 C    0.110
    11   6 C    3.986 --    10 C    1.465     4 C    1.394    25 H    0.965
                             6 C    0.101
    12   1 H    0.900 --     1 N    0.886
    13   1 H    0.904 --     1 N    0.889
    14   1 H    0.914 --     1 N    0.893
    15   1 H    0.986 --     2 C    0.965
    16   1 H    0.988 --     2 C    0.966
    17   1 H    0.993 --     3 C    0.968
    18   1 H    0.993 --     3 C    0.959
    19   1 H    0.997 --     5 C    0.967
    20   1 H    0.998 --     6 C    0.966
    21   1 H    0.995 --     9 C    0.979
    22   1 H    0.998 --     9 C    0.977
    23   1 H    0.997 --     9 C    0.976
    24   1 H    0.998 --    10 C    0.969
    25   1 H    0.995 --    11 C    0.965
 ---------------------------------------------------------------------------

molecular dipole:
                 x           y           z       tot (Debye)
 q only:        5.203       1.173      -5.301
   full:        5.558       1.279      -5.298      19.785

           -------------------------------------------------
          | TOTAL ENERGY              -33.066661191669 Eh   |
          | GRADIENT NORM               0.000210223826 Eh/α |
          | HOMO-LUMO GAP               4.171366136794 eV   |
           -------------------------------------------------

 * finished run on 2023/01/24 at 15:48:48.072
