   * xtb version 6.5.1 (fef0646) compiled by 'conda@b96dff2e9fd6' on 2023-01-04
          program call               : xtb init.xyz --opt -c 1 -u 0 -P 16 --input xtb.inp

   ID    Z sym.   atoms
    1    7 N      1
    2    6 C      2-7, 9-11
    3    8 O      8
    4    1 H      12-25

          :  Hamiltonian                  GFN2-xTB          :
 * total energy  :   -32.9537031 Eh     change       -0.1690523E-09 Eh
 * total energy  :   -32.9564516 Eh     change       -0.2748405E-02 Eh
 * total energy  :   -32.9572830 Eh     change       -0.8314427E-03 Eh
 * total energy  :   -32.9576297 Eh     change       -0.3466608E-03 Eh
 * total energy  :   -32.9580409 Eh     change       -0.4112833E-03 Eh
 * total energy  :   -32.9583895 Eh     change       -0.3485151E-03 Eh
 * total energy  :   -32.9587951 Eh     change       -0.4056167E-03 Eh
 * total energy  :   -32.9591349 Eh     change       -0.3398463E-03 Eh
 * total energy  :   -32.9594126 Eh     change       -0.2777232E-03 Eh
 * total energy  :   -32.9596389 Eh     change       -0.2262469E-03 Eh
 * total energy  :   -32.9609678 Eh     change       -0.1342874E-03 Eh
 * total energy  :   -32.9610575 Eh     change       -0.8973624E-04 Eh
 * total energy  :   -32.9611162 Eh     change       -0.5865611E-04 Eh
 * total energy  :   -32.9611480 Eh     change       -0.3188719E-04 Eh
 * total energy  :   -32.9611816 Eh     change       -0.3353141E-04 Eh
 * total energy  :   -32.9612090 Eh     change       -0.2745815E-04 Eh
 * total energy  :   -32.9612191 Eh     change       -0.1009368E-04 Eh
 * total energy  :   -32.9612343 Eh     change       -0.1519573E-04 Eh
 * total energy  :   -32.9612389 Eh     change       -0.4586245E-05 Eh
   *** GEOMETRY OPTIMIZATION CONVERGED AFTER 26 ITERATIONS ***

 final structure:
================
25
 xtb: 6.5.1 (fef0646)
N            3.09904589315378       -1.47230237057459       -1.74773221178758
C            2.46129476576143       -0.52922203311740       -0.78275560683044
C            2.88040113892324       -0.95130644652773        0.62859446954128
C            4.38519662181394       -1.00303873203058        0.68657924503144
C            5.12962990434786        0.12438925857280        1.00544104465045
C            6.51098853305203        0.10749681779421        0.96668913377451
C            7.19042166479073       -1.05293886726164        0.58838924137698
O            8.52281782415023       -1.17924033369047        0.49764286504969
C            9.35146975479722       -0.08966116593851        0.84923754406363
C            6.44578141509463       -2.19537491754455        0.27390793612104
C            5.06642518635631       -2.16852867930064        0.31672943644772
H            3.18906314187425       -1.07863745363838       -2.68850357821835
H            2.57343381602250       -2.35141953009166       -1.80279104926380
H            4.04834983757699       -1.68319307294988       -1.32880267176541
H            1.37918282324581       -0.54192534704834       -0.90730750081246
H            2.83265745038803        0.47503130539580       -0.98924177916401
H            2.45164236039572       -1.92440435779797        0.87183611941984
H            2.49308489092827       -0.22651155800635        1.34229947192354
H            4.62306208244716        1.02975340009332        1.30438073245484
H            7.05261436772904        0.99807113514335        1.23932930374306
H           10.37070523590809       -0.44514421266014        0.71529156445667
H            9.20385917928349        0.20277499521677        1.89192541023352
H            9.17908132636080        0.76987666256142        0.19549181567064
H            6.97780533891150       -3.09592425785573        0.01424817402720
H            4.52534544668629       -3.09351023874392        0.15812088985510

          :  Hamiltonian                  GFN2-xTB          :
         :: total energy             -32.961238906681 Eh    ::
         :: gradient norm              0.000588591500 Eh/a0 ::
         :: HOMO-LUMO gap              3.856333698856 eV    ::
         :: SCC energy               -33.455332343466 Eh    ::
         :: -> dispersion             -0.018964474077 Eh    ::
         :: repulsion energy           0.494033006880 Eh    ::

    * Orbital Energies and Occupations

         #    Occupation            Energy/Eh            Energy/eV
      -------------------------------------------------------------
         1        2.0000           -0.8791108             -23.9218
       ...           ...                  ...                  ...
        18        2.0000           -0.6495315             -17.6747
        19        2.0000           -0.6318514             -17.1936
        20        2.0000           -0.6186290             -16.8338
        21        2.0000           -0.6178427             -16.8124
        22        2.0000           -0.6037583             -16.4291
        23        2.0000           -0.6005834             -16.3427
        24        2.0000           -0.5917833             -16.1032
        25        2.0000           -0.5731846             -15.5971
        26        2.0000           -0.5642949             -15.3552
        27        2.0000           -0.5627708             -15.3138
        28        2.0000           -0.5404788             -14.7072
        29        2.0000           -0.5348062             -14.5528
        30        2.0000           -0.4975539             -13.5391 (HOMO)
        31                         -0.3558362              -9.6828 (LUMO)
        32                         -0.3447294              -9.3806
        33                         -0.2404554              -6.5431
        34                         -0.2221200              -6.0442
        35                         -0.1389296              -3.7805
        36                         -0.0856571              -2.3308
        37                         -0.0775613              -2.1106
        38                         -0.0738357              -2.0092
        39                         -0.0476810              -1.2975
        40                         -0.0325177              -0.8849
        41                         -0.0036974              -0.1006
       ...                                ...                  ...
        58                          0.5335682              14.5191
      -------------------------------------------------------------
                  HL-Gap            0.1417177 Eh            3.8563 eV

     #   Z          covCN         q      C6AA      α(0)
     1   7 N        3.482    -0.145    24.138     7.297
     2   6 C        3.735    -0.030    21.192     6.570
     3   6 C        3.809    -0.091    22.226     6.711
     4   6 C        2.971    -0.021    28.524     8.761
     5   6 C        2.921    -0.039    28.972     8.827
     6   6 C        2.916    -0.062    29.532     8.911
     7   6 C        2.864     0.155    24.638     8.136
     8   8 O        1.706    -0.242    18.006     5.729
     9   6 C        3.644     0.025    20.491     6.507
    10   6 C        2.917    -0.056    29.401     8.892
    11   6 C        2.920    -0.067    29.659     8.931
    12   1 H        0.859     0.259     0.850     1.445
    13   1 H        0.859     0.262     0.840     1.436
    14   1 H        0.856     0.280     0.777     1.381
    15   1 H        0.925     0.101     1.772     2.082
    16   1 H        0.924     0.102     1.765     2.078
    17   1 H        0.924     0.070     2.086     2.258
    18   1 H        0.925     0.092     1.856     2.130
    19   1 H        0.926     0.051     2.302     2.373
    20   1 H        0.926     0.059     2.205     2.322
    21   1 H        0.925     0.082     1.955     2.187
    22   1 H        0.924     0.056     2.244     2.343
    23   1 H        0.924     0.052     2.300     2.372
    24   1 H        0.926     0.067     2.120     2.277
    25   1 H        0.925     0.038     2.472     2.459

Wiberg/Mayer (AO) data.
largest (>0.10) Wiberg bond orders for each atom

     #   Z sym  total        # sym  WBO       # sym  WBO       # sym  WBO
 ---------------------------------------------------------------------------
     1   7 N    3.663 --     2 C    0.935    12 H    0.919    13 H    0.917
                            14 H    0.828
     2   6 C    3.899 --     3 C    0.993    16 H    0.969    15 H    0.969
                             1 N    0.935
     3   6 C    3.979 --     4 C    1.006     2 C    0.993    17 H    0.969
                            18 H    0.961
     4   6 C    3.983 --     5 C    1.407    11 C    1.357     3 C    1.006
     5   6 C    3.991 --     6 C    1.459     4 C    1.407    19 H    0.967
                            10 C    0.102
     6   6 C    3.989 --     5 C    1.459     7 C    1.345    20 H    0.964
     7   6 C    3.941 --     6 C    1.345    10 C    1.333     8 O    1.117
     8   8 O    2.287 --     7 C    1.117     9 C    0.970
     9   6 C    3.930 --    21 H    0.977    23 H    0.976    22 H    0.976
                             8 O    0.970
    10   6 C    3.987 --    11 C    1.461     7 C    1.333    24 H    0.966
                             5 C    0.102
    11   6 C    3.989 --    10 C    1.461     4 C    1.357    25 H    0.959
    12   1 H    0.933 --     1 N    0.919
    13   1 H    0.931 --     1 N    0.917
    14   1 H    0.922 --     1 N    0.828
    15   1 H    0.988 --     2 C    0.969
    16   1 H    0.990 --     2 C    0.969
    17   1 H    0.995 --     3 C    0.969
    18   1 H    0.991 --     3 C    0.961
    19   1 H    0.997 --     5 C    0.967
    20   1 H    0.996 --     6 C    0.964
    21   1 H    0.993 --     9 C    0.977
    22   1 H    0.997 --     9 C    0.976
    23   1 H    0.997 --     9 C    0.976
    24   1 H    0.995 --    10 C    0.966
    25   1 H    0.998 --    11 C    0.959
 ---------------------------------------------------------------------------

molecular dipole:
                 x           y           z       tot (Debye)
 q only:        7.016      -1.913      -2.194
   full:        7.047      -1.900      -2.307      19.457

           -------------------------------------------------
          | TOTAL ENERGY              -32.961238906681 Eh   |
          | GRADIENT NORM               0.000588591500 Eh/α |
          | HOMO-LUMO GAP               3.856333698856 eV   |
           -------------------------------------------------

 * finished run on 2023/01/23 at 19:41:04.718
