   * xtb version 6.5.1 (fef0646) compiled by 'conda@b96dff2e9fd6' on 2023-01-04
          program call               : xtb init.xyz --opt -c 1 -u 0 -P 16

   ID    Z sym.   atoms
    1    7 N      1
    2    6 C      2-11
    3   16 S      12, 13
    4    1 H      14-25

          :  Hamiltonian                  GFN2-xTB          :
 * total energy  :   -36.4864089 Eh     change       -0.1674657E-08 Eh
 * total energy  :   -36.4902581 Eh     change       -0.3849246E-02 Eh
 * total energy  :   -36.4917839 Eh     change       -0.1525746E-02 Eh
 * total energy  :   -36.4925431 Eh     change       -0.7591985E-03 Eh
 * total energy  :   -36.4931682 Eh     change       -0.6251252E-03 Eh
 * total energy  :   -36.4936429 Eh     change       -0.4747173E-03 Eh
 * total energy  :   -36.4941488 Eh     change       -0.5058774E-03 Eh
 * total energy  :   -36.4944653 Eh     change       -0.3164590E-03 Eh
 * total energy  :   -36.4946390 Eh     change       -0.1737593E-03 Eh
 * total energy  :   -36.4947639 Eh     change       -0.1249102E-03 Eh
 * total energy  :   -36.4948696 Eh     change       -0.1056274E-03 Eh
 * total energy  :   -36.4949895 Eh     change       -0.1199398E-03 Eh
 * total energy  :   -36.4950598 Eh     change       -0.7032319E-04 Eh
 * total energy  :   -36.4951106 Eh     change       -0.5077333E-04 Eh
 * total energy  :   -36.4951438 Eh     change       -0.3322003E-04 Eh
 * total energy  :   -36.4951554 Eh     change       -0.1161231E-04 Eh
 * total energy  :   -36.4951600 Eh     change       -0.4551436E-05 Eh
 * total energy  :   -36.4951633 Eh     change       -0.3287424E-05 Eh
 * total energy  :   -36.4951671 Eh     change       -0.3811106E-05 Eh
   *** GEOMETRY OPTIMIZATION CONVERGED AFTER 19 ITERATIONS ***

 final structure:
================
25
 xtb: 6.5.1 (fef0646)
N            3.22378771124510        1.33196206950846        0.93365906245802
C            2.66881482631526        0.11967750617769        0.26927366832775
C            3.03074797807548        0.14665985454129       -1.21859058775998
C            4.50873455965828        0.07035419805144       -1.41863594353810
C            5.26564740291406       -0.98675483461881       -1.81253528656224
C            6.64980220828867       -0.72027021843045       -1.81983605415339
C            6.97595386680034        0.54611361382567       -1.41623223560293
C            8.25948070230866        1.15309367216780       -1.27904118300559
C            9.47806706248919        0.65089152412336       -1.66835312178319
C           10.54350334995546        1.51672941501065       -1.36921019021242
C           10.14095307493937        2.66249431529319       -0.75626222836267
S            8.44552381670963        2.71821653216203       -0.53293602606373
S            5.52973914284558        1.45746582999422       -1.06526494187531
H            3.17720182346169        1.27124939199740        1.95538924500127
H            2.72290343389123        2.17233895422258        0.62302110334040
H            4.22404511041020        1.43185811967772        0.61646994215110
H            1.58750224519281        0.09365157922632        0.40512238955808
H            3.10902520587596       -0.76102808767303        0.73866478645221
H            2.62685504462973        1.05036496692032       -1.67991604787249
H            2.56532925981819       -0.71157390151750       -1.70240949821155
H            4.85121052606384       -1.93782726410941       -2.09437264628401
H            7.38787844034271       -1.44532729347282       -2.10614422031348
H            9.59923108455813       -0.29650804503435       -2.15951880075352
H           11.57001921700597        1.29967957263258       -1.60059375055848
H           10.73920290620472        3.48618852932247       -0.42100743437489

          :  Hamiltonian                  GFN2-xTB          :
         :: total energy             -36.495167090236 Eh    ::
         :: gradient norm              0.000902978122 Eh/a0 ::
         :: HOMO-LUMO gap              2.478381696730 eV    ::
         :: SCC energy               -37.037408360388 Eh    ::
         :: -> dispersion             -0.024906863327 Eh    ::
         :: repulsion energy           0.542274303836 Eh    ::

    * Orbital Energies and Occupations

         #    Occupation            Energy/Eh            Energy/eV
      -------------------------------------------------------------
         1        2.0000           -0.8774839             -23.8776
       ...           ...                  ...                  ...
        22        2.0000           -0.6095693             -16.5872
        23        2.0000           -0.5978533             -16.2684
        24        2.0000           -0.5808411             -15.8055
        25        2.0000           -0.5795569             -15.7705
        26        2.0000           -0.5793000             -15.7636
        27        2.0000           -0.5677356             -15.4489
        28        2.0000           -0.5630854             -15.3223
        29        2.0000           -0.5525526             -15.0357
        30        2.0000           -0.5462924             -14.8654
        31        2.0000           -0.5309913             -14.4490
        32        2.0000           -0.5238538             -14.2548
        33        2.0000           -0.4958665             -13.4932
        34        2.0000           -0.4768944             -12.9770 (HOMO)
        35                         -0.3858155             -10.4986 (LUMO)
        36                         -0.3462763              -9.4227
        37                         -0.3289615              -8.9515
        38                         -0.2964450              -8.0667
        39                         -0.2894035              -7.8751
        40                         -0.2617718              -7.1232
        41                         -0.2525007              -6.8709
        42                         -0.2347047              -6.3866
        43                         -0.2165520              -5.8927
        44                         -0.1578739              -4.2960
        45                         -0.1338788              -3.6430
       ...                                ...                  ...
        74                          0.6053823              16.4733
      -------------------------------------------------------------
                  HL-Gap            0.0910789 Eh            2.4784 eV

     #   Z          covCN         q      C6AA      α(0)
     1   7 N        3.482    -0.148    24.183     7.304
     2   6 C        3.732    -0.031    21.220     6.575
     3   6 C        3.822    -0.087    22.143     6.696
     4   6 C        2.984    -0.004    28.111     8.697
     5   6 C        3.096    -0.043    28.938     8.816
     6   6 C        3.112    -0.049    29.065     8.832
     7   6 C        3.012     0.034    27.214     8.557
     8   6 C        3.026     0.011    27.753     8.641
     9   6 C        3.104    -0.041    28.875     8.805
    10   6 C        3.116    -0.035    28.708     8.777
    11   6 C        2.939    -0.009    28.252     8.717
    12  16 S        2.352    -0.009   141.423    20.015
    13  16 S        2.392    -0.089   144.754    20.250
    14   1 H        0.859     0.264     0.831     1.428
    15   1 H        0.859     0.268     0.817     1.416
    16   1 H        0.876     0.285     0.757     1.362
    17   1 H        0.925     0.105     1.738     2.062
    18   1 H        0.924     0.107     1.722     2.052
    19   1 H        0.924     0.078     1.995     2.209
    20   1 H        0.925     0.100     1.789     2.092
    21   1 H        0.926     0.059     2.205     2.322
    22   1 H        0.926     0.060     2.198     2.319
    23   1 H        0.926     0.052     2.290     2.367
    24   1 H        0.926     0.059     2.209     2.324
    25   1 H        0.926     0.061     2.189     2.313

Wiberg/Mayer (AO) data.
largest (>0.10) Wiberg bond orders for each atom

     #   Z sym  total        # sym  WBO       # sym  WBO       # sym  WBO
 ---------------------------------------------------------------------------
     1   7 N    3.661 --     2 C    0.940    14 H    0.916    15 H    0.912
                            16 H    0.836
     2   6 C    3.901 --     3 C    0.993    18 H    0.967    17 H    0.967
                             1 N    0.940
     3   6 C    3.982 --     4 C    1.022     2 C    0.993    19 H    0.962
                            20 H    0.956
     4   6 C    3.918 --     5 C    1.600    13 S    1.107     3 C    1.022
                             7 C    0.101
     5   6 C    3.988 --     4 C    1.600     6 C    1.282    21 H    0.960
     6   6 C    3.986 --     7 C    1.528     5 C    1.282    22 H    0.959
     7   6 C    3.948 --     6 C    1.528     8 C    1.159    13 S    1.090
                             4 C    0.101
     8   6 C    3.951 --     9 C    1.490     7 C    1.159    12 S    1.134
     9   6 C    3.986 --     8 C    1.490    10 C    1.312    23 H    0.963
    10   6 C    3.987 --    11 C    1.595     9 C    1.312    24 H    0.962
    11   6 C    3.935 --    10 C    1.595    12 S    1.208    25 H    0.969
    12  16 S    2.630 --    11 C    1.208     8 C    1.134
    13  16 S    2.574 --     4 C    1.107     7 C    1.090
    14   1 H    0.930 --     1 N    0.916
    15   1 H    0.928 --     1 N    0.912
    16   1 H    0.918 --     1 N    0.836
    17   1 H    0.988 --     2 C    0.967
    18   1 H    0.989 --     2 C    0.967
    19   1 H    0.993 --     3 C    0.962
    20   1 H    0.990 --     3 C    0.956
    21   1 H    0.996 --     5 C    0.960
    22   1 H    0.996 --     6 C    0.959
    23   1 H    0.997 --     9 C    0.963
    24   1 H    0.996 --    10 C    0.962
    25   1 H    0.996 --    11 C    0.969
 ---------------------------------------------------------------------------

molecular dipole:
                 x           y           z       tot (Debye)
 q only:        7.224       1.843       0.924
   full:        7.891       1.727       0.667      20.601

           -------------------------------------------------
          | TOTAL ENERGY              -36.495167090236 Eh   |
          | GRADIENT NORM               0.000902978122 Eh/α |
          | HOMO-LUMO GAP               2.478381696730 eV   |
           -------------------------------------------------

 * finished run on 2023/01/23 at 14:06:25.139
