   * xtb version 6.5.1 (fef0646) compiled by 'conda@b96dff2e9fd6' on 2023-01-04
          program call               : xtb init.xyz --opt -c 0 -u 0 -P 16 --alpb water

   ID    Z sym.   atoms
    1    7 N      1
    2    6 C      2, 3, 5-24
    3    8 O      4
    4   17 Cl     25
    5    1 H      26-43

      * Solvation model:               ALPB
        Solvent                        water
        Solvent mass                       1.8000E+01 g/mol
          :  Hamiltonian                  GFN2-xTB          :
 * total energy  :   -67.8815506 Eh     change       -0.2046406E-08 Eh
 * total energy  :   -67.8909190 Eh     change       -0.9368456E-02 Eh
 * total energy  :   -67.8934299 Eh     change       -0.2510844E-02 Eh
 * total energy  :   -67.8939868 Eh     change       -0.5569767E-03 Eh
 * total energy  :   -67.8944931 Eh     change       -0.5062730E-03 Eh
 * total energy  :   -67.8947981 Eh     change       -0.3049695E-03 Eh
 * total energy  :   -67.8951362 Eh     change       -0.3381214E-03 Eh
 * total energy  :   -67.8954845 Eh     change       -0.3482488E-03 Eh
 * total energy  :   -67.8957860 Eh     change       -0.3015448E-03 Eh
 * total energy  :   -67.8960527 Eh     change       -0.2666487E-03 Eh
 * total energy  :   -67.8970280 Eh     change       -0.1197420E-04 Eh
 * total energy  :   -67.8970524 Eh     change       -0.2441576E-04 Eh
 * total energy  :   -67.8970609 Eh     change       -0.8478342E-05 Eh
 * total energy  :   -67.8970771 Eh     change       -0.1622835E-04 Eh
 * total energy  :   -67.8970894 Eh     change       -0.1231560E-04 Eh
 * total energy  :   -67.8970971 Eh     change       -0.7639807E-05 Eh
 * total energy  :   -67.8971032 Eh     change       -0.6148249E-05 Eh
 * total energy  :   -67.8971083 Eh     change       -0.5039308E-05 Eh
 * total energy  :   -67.8971119 Eh     change       -0.3624217E-05 Eh
   *** GEOMETRY OPTIMIZATION CONVERGED AFTER 32 ITERATIONS ***

 final structure:
================
43
 xtb: 6.5.1 (fef0646)
N            0.97417221564789        1.95945115033740       -0.00457219367504
C            2.02836802263619        1.76241791522001       -1.01421739932902
C            3.37653492881096        1.50774841704314       -0.32641716006201
O            4.35439059751859        1.06792739569875       -1.24831047298752
C            4.97252750052129        1.96858846006820       -2.06286543041182
C            4.78902098865038        3.33069049333423       -2.03633357800232
C            5.49673137453163        4.15489960625944       -2.90840473999377
C            6.38849895780069        3.66156760793280       -3.84231269507281
C            6.57970223298553        2.25448598350361       -3.90779628294936
C            7.45875254076906        1.67126612938553       -4.86018316095317
C            7.64880402233459        0.29958273062509       -4.84041740208993
C            6.97976678787982       -0.52045856038440       -3.93453450213233
C            6.10014476626674        0.01900623242034       -3.03603986543481
C            5.88570343970314        1.40895051583239       -3.00379923102378
C            7.12997685897431        4.52869103728980       -4.74704052453971
C            7.04322693536119        5.90967304748103       -4.68529406936293
C            7.73851078697027        6.73018924759199       -5.57275199290384
C            8.52724568710669        6.18179965357636       -6.54572018388177
C            8.65875977779095        4.78279521848037       -6.64746647640835
C            9.46668011263761        4.21045442335653       -7.64953237063487
C            9.58706018658873        2.85195626811876       -7.74492406302574
C            8.92781482346858        2.02216271582950       -6.83832596974380
C            8.13273674993337        2.53256407588678       -5.82585625283719
C            7.96922258231821        3.94146749002099       -5.73270133698681
Cl           1.06419317215386       -0.35088079434230        1.96995549760232
H            0.05158723788831        2.02118276735707       -0.44196285191843
H            1.14567466691418        2.79803342508067        0.55577735750282
H            0.96047790619551        1.14353302295548        0.66498123822780
H            2.08819608934037        2.63216837562382       -1.67037644047949
H            1.79272454485939        0.88263303354217       -1.61350101506427
H            3.25768645507218        0.67976028356033        0.37808172036288
H            3.72862355376015        2.38712117509092        0.22173770981212
H            4.11630078663710        3.79785700424241       -1.33719291141533
H            5.31695822834621        5.21440401583086       -2.83423325071699
H            8.33027316870840       -0.16844478240464       -5.53178199936838
H            7.15771918077649       -1.58522919506906       -3.95241036528569
H            5.56473030609008       -0.60209272624699       -2.33581938523144
H            6.43069246721558        6.38722189250979       -3.93855998298694
H            7.64248089134278        7.80242074801900       -5.48673023424140
H            9.06129783180963        6.80643299371087       -7.24646014149108
H            9.98192805009868        4.86331400108963       -8.33868251015449
H           10.19657558956168        2.40917320913116       -8.51881572328880
H            9.05369699597873        0.95796429541223       -6.95241935743900

          :  Hamiltonian                  GFN2-xTB          :
         :: total energy             -67.897111878295 Eh    ::
         :: gradient norm              0.000306346235 Eh/a0 ::
         :: HOMO-LUMO gap              1.833273217529 eV    ::
         :: SCC energy               -69.001096682985 Eh    ::
         :: -> dispersion             -0.052194514162 Eh    ::
         :: -> Gsolv                  -0.079580622826 Eh    ::
         :: repulsion energy           1.104201071362 Eh    ::

    * Orbital Energies and Occupations

         #    Occupation            Energy/Eh            Energy/eV
      -------------------------------------------------------------
         1        2.0000           -1.0082250             -27.4352
       ...           ...                  ...                  ...
        50        2.0000           -0.4293567             -11.6834
        51        2.0000           -0.4279475             -11.6450
        52        2.0000           -0.4217083             -11.4753
        53        2.0000           -0.4047519             -11.0139
        54        2.0000           -0.4020543             -10.9405
        55        2.0000           -0.4015999             -10.9281
        56        2.0000           -0.4013448             -10.9211
        57        2.0000           -0.4004869             -10.8978
        58        2.0000           -0.3995747             -10.8730
        59        2.0000           -0.3978791             -10.8268
        60        2.0000           -0.3962103             -10.7814
        61        2.0000           -0.3893565             -10.5949
        62        2.0000           -0.3476012              -9.4587 (HOMO)
        63                         -0.2802296              -7.6254 (LUMO)
        64                         -0.2263296              -6.1587
        65                         -0.2219508              -6.0396
        66                         -0.2206089              -6.0031
        67                         -0.2177196              -5.9245
        68                         -0.1522256              -4.1423
        69                         -0.1509310              -4.1070
        70                         -0.1121634              -3.0521
        71                         -0.0704206              -1.9162
        72                         -0.0466593              -1.2697
        73                         -0.0181932              -0.4951
       ...                                ...                  ...
       123                          0.7421491              20.1949
      -------------------------------------------------------------
                  HL-Gap            0.0673716 Eh            1.8333 eV

     #   Z          covCN         q      C6AA      α(0)
     1   7 N        3.483    -0.173    24.740     7.387
     2   6 C        3.729    -0.032    21.245     6.580
     3   6 C        3.690     0.056    19.822     6.372
     4   8 O        1.704    -0.283    18.704     5.839
     5   6 C        2.860     0.135    25.044     8.203
     6   6 C        2.911    -0.080    30.001     8.981
     7   6 C        2.923    -0.044    29.083     8.844
     8   6 C        2.973    -0.008    28.226     8.715
     9   6 C        2.994     0.001    27.992     8.679
    10   6 C        2.974     0.003    27.946     8.671
    11   6 C        2.923    -0.040    28.991     8.830
    12   6 C        2.913    -0.037    28.926     8.819
    13   6 C        2.921    -0.036    28.907     8.817
    14   6 C        2.986    -0.010    28.249     8.718
    15   6 C        2.973     0.004    27.924     8.668
    16   6 C        2.923    -0.045    29.112     8.848
    17   6 C        2.913    -0.037    28.920     8.818
    18   6 C        2.921    -0.045    29.106     8.847
    19   6 C        2.986     0.008    27.827     8.653
    20   6 C        2.921    -0.043    29.078     8.843
    21   6 C        2.913    -0.037    28.918     8.818
    22   6 C        2.923    -0.043    29.064     8.841
    23   6 C        2.973     0.003    27.956     8.673
    24   6 C        2.995     0.001    28.005     8.681
    25  17 Cl       0.061    -0.943   124.707    16.996
    26   1 H        0.859     0.315     0.671     1.283
    27   1 H        0.859     0.302     0.707     1.317
    28   1 H        0.918     0.300     0.710     1.318
    29   1 H        0.924     0.112     1.679     2.027
    30   1 H        0.924     0.112     1.677     2.025
    31   1 H        0.924     0.086     1.921     2.168
    32   1 H        0.924     0.066     2.127     2.281
    33   1 H        0.926     0.060     2.205     2.322
    34   1 H        0.926     0.048     2.342     2.393
    35   1 H        0.926     0.036     2.498     2.472
    36   1 H        0.926     0.034     2.525     2.485
    37   1 H        0.926     0.048     2.345     2.395
    38   1 H        0.926     0.039     2.457     2.451
    39   1 H        0.926     0.034     2.523     2.484
    40   1 H        0.926     0.032     2.558     2.501
    41   1 H        0.926     0.033     2.541     2.493
    42   1 H        0.926     0.033     2.548     2.496
    43   1 H        0.926     0.034     2.529     2.487

Wiberg/Mayer (AO) data.
largest (>0.10) Wiberg bond orders for each atom

     #   Z sym  total        # sym  WBO       # sym  WBO       # sym  WBO
 ---------------------------------------------------------------------------
     1   7 N    3.638 --     2 C    0.981    27 H    0.894    26 H    0.887
                            28 H    0.824
     2   6 C    3.930 --     3 C    0.992     1 N    0.981    30 H    0.966
                            29 H    0.964
     3   6 C    3.932 --     2 C    0.992     4 O    0.967    31 H    0.963
                            32 H    0.962
     4   8 O    2.226 --     5 C    1.065     3 C    0.967
     5   6 C    3.908 --     6 C    1.446    14 C    1.205     4 O    1.065
     6   6 C    3.982 --     5 C    1.446     7 C    1.367    33 H    0.960
     7   6 C    3.970 --     8 C    1.441     6 C    1.367    34 H    0.961
     8   6 C    3.986 --     7 C    1.441     9 C    1.239    15 C    1.103
     9   6 C    3.988 --    14 C    1.268    10 C    1.251     8 C    1.239
    10   6 C    3.988 --    11 C    1.441     9 C    1.251    23 C    1.099
                            13 C    0.101
    11   6 C    3.973 --    10 C    1.441    12 C    1.369    35 H    0.962
    12   6 C    3.991 --    13 C    1.516    11 C    1.369    36 H    0.970
    13   6 C    3.966 --    12 C    1.516    14 C    1.298    37 H    0.966
                            10 C    0.101
    14   6 C    3.987 --    13 C    1.298     9 C    1.268     5 C    1.205
    15   6 C    3.988 --    16 C    1.442    24 C    1.247     8 C    1.103
                            18 C    0.101
    16   6 C    3.966 --    15 C    1.442    17 C    1.362    38 H    0.962
    17   6 C    3.991 --    18 C    1.526    16 C    1.362    39 H    0.970
    18   6 C    3.962 --    17 C    1.526    19 C    1.280    40 H    0.968
                            15 C    0.101
    19   6 C    3.989 --    20 C    1.280    18 C    1.280    24 C    1.257
    20   6 C    3.964 --    21 C    1.527    19 C    1.280    41 H    0.968
                            23 C    0.101
    21   6 C    3.991 --    20 C    1.527    22 C    1.361    42 H    0.970
    22   6 C    3.969 --    23 C    1.444    21 C    1.361    43 H    0.962
    23   6 C    3.988 --    22 C    1.444    24 C    1.250    10 C    1.099
                            20 C    0.101
    24   6 C    3.988 --    19 C    1.257    23 C    1.250    15 C    1.247
    25  17 Cl   0.111
    26   1 H    0.901 --     1 N    0.887
    27   1 H    0.909 --     1 N    0.894
    28   1 H    0.910 --     1 N    0.824
    29   1 H    0.987 --     2 C    0.964
    30   1 H    0.987 --     2 C    0.966
    31   1 H    0.992 --     3 C    0.963
    32   1 H    0.995 --     3 C    0.962
    33   1 H    0.995 --     6 C    0.960
    34   1 H    0.997 --     7 C    0.961
    35   1 H    0.998 --    11 C    0.962
    36   1 H    0.998 --    12 C    0.970
    37   1 H    0.997 --    13 C    0.966
    38   1 H    0.998 --    16 C    0.962
    39   1 H    0.998 --    17 C    0.970
    40   1 H    0.998 --    18 C    0.968
    41   1 H    0.998 --    20 C    0.968
    42   1 H    0.998 --    21 C    0.970
    43   1 H    0.998 --    22 C    0.962
 ---------------------------------------------------------------------------

molecular dipole:
                 x           y           z       tot (Debye)
 q only:       -0.736       4.238      -3.006
   full:       -0.769       3.729      -2.439      11.492

           -------------------------------------------------
          | TOTAL ENERGY              -67.897111878295 Eh   |
          | GRADIENT NORM               0.000306346235 Eh/α |
          | HOMO-LUMO GAP               1.833273217529 eV   |
           -------------------------------------------------

 * finished run on 2023/01/24 at 14:58:09.829
