   * xtb version 6.5.1 (fef0646) compiled by 'conda@b96dff2e9fd6' on 2023-01-04
          program call               : xtb init.xyz --opt -c 1 -u 0 -P 16 --alpb water

   ID    Z sym.   atoms
    1    7 N      1
    2    6 C      2, 3, 5-14
    3    8 O      4
    4    1 H      15-28

      * Solvation model:               ALPB
        Solvent                        water
        Solvent mass                       1.8000E+01 g/mol
          :  Hamiltonian                  GFN2-xTB          :
 * total energy  :   -39.4839773 Eh     change       -0.1045642E-08 Eh
 * total energy  :   -39.4881462 Eh     change       -0.4168913E-02 Eh
 * total energy  :   -39.4889622 Eh     change       -0.8160178E-03 Eh
 * total energy  :   -39.4891323 Eh     change       -0.1701130E-03 Eh
 * total energy  :   -39.4892745 Eh     change       -0.1422244E-03 Eh
 * total energy  :   -39.4893505 Eh     change       -0.7593900E-04 Eh
 * total energy  :   -39.4894142 Eh     change       -0.6375981E-04 Eh
 * total energy  :   -39.4894646 Eh     change       -0.5032724E-04 Eh
 * total energy  :   -39.4894934 Eh     change       -0.2885662E-04 Eh
 * total energy  :   -39.4895164 Eh     change       -0.2299630E-04 Eh
 * total energy  :   -39.4895306 Eh     change       -0.1414069E-04 Eh
 * total energy  :   -39.4895404 Eh     change       -0.9787185E-05 Eh
 * total energy  :   -39.4895461 Eh     change       -0.5755349E-05 Eh
 * total energy  :   -39.4895474 Eh     change       -0.1307500E-05 Eh
   *** GEOMETRY OPTIMIZATION CONVERGED AFTER 14 ITERATIONS ***

 final structure:
================
28
 xtb: 6.5.1 (fef0646)
N            3.86137321736402        0.10625191521946        1.54646460290186
C            2.83248933725883        0.49332615377351        0.55466504374741
C            3.34451017628184        1.67364482998796       -0.26309235074929
O            4.53922375252740        1.21900531830488       -0.89432779844361
C            5.20194992639506        2.05034711084077       -1.74501979650556
C            4.84951220921546        3.35397161076687       -1.98869325406357
C            5.61994174673587        4.14360327148425       -2.85630400519236
C            6.73045806397877        3.63890847231781       -3.46775898688694
C            7.11607672631889        2.29888429346021       -3.24859114312809
C            8.25122111246896        1.73865240760500       -3.87039852974616
C            8.60006185229514        0.43420769754957       -3.65489725420846
C            7.82331319230395       -0.37399030940598       -2.81229203494268
C            6.71926362120694        0.14009113226342       -2.19054641807664
C            6.34294843860962        1.48405728362278       -2.38442843835610
H            3.61786169475417       -0.77482010657953        2.01198310423227
H            3.98153417808432        0.83830499272601        2.25641286812405
H            4.75417206456070       -0.00742838673264        1.04849261321494
H            1.90384325247996        0.76464206448493        1.05374337321880
H            2.65185144412314       -0.34535553461237       -0.11755955002240
H            3.56308789015369        2.53686943389295        0.37599447681113
H            2.60029017492457        1.96588028838981       -1.01002356559053
H            3.98442411047212        3.80184438215813       -1.52800325999527
H            5.32038261026653        5.16643570886910       -3.02952802506401
H            7.32591999232526        4.25135378846143       -4.12858130211298
H            8.84076906747652        2.36367301855526       -4.52611409002923
H            9.47181651509939        0.01765705036505       -4.13795127023488
H            8.10528157123203       -1.40526959138605       -2.66320874787440
H            6.11182206108685       -0.48511829638254       -1.55763626102750

          :  Hamiltonian                  GFN2-xTB          :
         :: total energy             -39.489547415182 Eh    ::
         :: gradient norm              0.000294141812 Eh/a0 ::
         :: HOMO-LUMO gap              3.116173645242 eV    ::
         :: SCC energy               -40.133062114041 Eh    ::
         :: -> dispersion             -0.024484339700 Eh    ::
         :: -> Gsolv                  -0.123658808771 Eh    ::
         :: repulsion energy           0.643449258554 Eh    ::

    * Orbital Energies and Occupations

         #    Occupation            Energy/Eh            Energy/eV
      -------------------------------------------------------------
         1        2.0000           -0.7284210             -19.8213
       ...           ...                  ...                  ...
        24        2.0000           -0.4850223             -13.1981
        25        2.0000           -0.4808587             -13.0848
        26        2.0000           -0.4793346             -13.0434
        27        2.0000           -0.4692772             -12.7697
        28        2.0000           -0.4636994             -12.6179
        29        2.0000           -0.4556787             -12.3996
        30        2.0000           -0.4464645             -12.1489
        31        2.0000           -0.4453294             -12.1180
        32        2.0000           -0.4191476             -11.4056
        33        2.0000           -0.4157463             -11.3130
        34        2.0000           -0.4129204             -11.2361
        35        2.0000           -0.4009966             -10.9117
        36        2.0000           -0.3694557             -10.0534 (HOMO)
        37                         -0.2549385              -6.9372 (LUMO)
        38                         -0.2290076              -6.2316
        39                         -0.1860920              -5.0638
        40                         -0.1427889              -3.8855
        41                         -0.0563169              -1.5325
        42                         -0.0539187              -1.4672
        43                          0.0050924               0.1386
        44                          0.0541078               1.4723
        45                          0.0673463               1.8326
        46                          0.1059965               2.8843
        47                          0.1124860               3.0609
       ...                                ...                  ...
        70                          0.6966284              18.9562
      -------------------------------------------------------------
                  HL-Gap            0.1145173 Eh            3.1162 eV

     #   Z          covCN         q      C6AA      α(0)
     1   7 N        3.486    -0.154    24.325     7.325
     2   6 C        3.731    -0.045    21.471     6.614
     3   6 C        3.689     0.050    19.924     6.388
     4   8 O        1.704    -0.275    18.554     5.816
     5   6 C        2.858     0.129    25.176     8.224
     6   6 C        2.913    -0.081    30.021     8.985
     7   6 C        2.917    -0.038    28.957     8.824
     8   6 C        2.916    -0.052    29.299     8.876
     9   6 C        2.987     0.008    27.831     8.654
    10   6 C        2.920    -0.039    28.976     8.827
    11   6 C        2.916    -0.034    28.857     8.809
    12   6 C        2.916    -0.038    28.950     8.823
    13   6 C        2.918    -0.040    29.002     8.831
    14   6 C        2.987    -0.009    28.236     8.716
    15   1 H        0.859     0.324     0.647     1.260
    16   1 H        0.859     0.314     0.674     1.286
    17   1 H        0.859     0.307     0.694     1.305
    18   1 H        0.925     0.131     1.531     1.935
    19   1 H        0.925     0.131     1.525     1.931
    20   1 H        0.924     0.077     2.012     2.218
    21   1 H        0.924     0.074     2.040     2.233
    22   1 H        0.926     0.050     2.319     2.381
    23   1 H        0.926     0.032     2.564     2.504
    24   1 H        0.926     0.024     2.681     2.560
    25   1 H        0.926     0.025     2.660     2.550
    26   1 H        0.926     0.027     2.635     2.538
    27   1 H        0.926     0.040     2.455     2.450
    28   1 H        0.926     0.067     2.119     2.276

Wiberg/Mayer (AO) data.
largest (>0.10) Wiberg bond orders for each atom

     #   Z sym  total        # sym  WBO       # sym  WBO       # sym  WBO
 ---------------------------------------------------------------------------
     1   7 N    3.654 --     2 C    0.976    17 H    0.887    16 H    0.887
                            15 H    0.883
     2   6 C    3.928 --     3 C    1.008     1 N    0.976    18 H    0.961
                            19 H    0.960
     3   6 C    3.933 --     2 C    1.008    21 H    0.962    20 H    0.961
                             4 O    0.955
     4   8 O    2.224 --     5 C    1.065     3 C    0.955
     5   6 C    3.946 --     6 C    1.482    14 C    1.209     4 O    1.065
                             8 C    0.101
     6   6 C    3.986 --     5 C    1.482     7 C    1.319    22 H    0.964
     7   6 C    3.992 --     8 C    1.560     6 C    1.319    23 H    0.971
     8   6 C    3.992 --     7 C    1.560     9 C    1.269    24 H    0.969
                             5 C    0.101
     9   6 C    3.990 --    10 C    1.283     8 C    1.269    14 C    1.262
    10   6 C    3.992 --    11 C    1.553     9 C    1.283    25 H    0.969
                            13 C    0.118
    11   6 C    3.992 --    10 C    1.553    12 C    1.328    26 H    0.971
    12   6 C    3.991 --    13 C    1.547    11 C    1.328    27 H    0.970
    13   6 C    3.989 --    12 C    1.547    14 C    1.295    28 H    0.964
                            10 C    0.118
    14   6 C    3.988 --    13 C    1.295     9 C    1.262     5 C    1.209
    15   1 H    0.895 --     1 N    0.883
    16   1 H    0.902 --     1 N    0.887
    17   1 H    0.906 --     1 N    0.887
    18   1 H    0.982 --     2 C    0.961
    19   1 H    0.983 --     2 C    0.960
    20   1 H    0.994 --     3 C    0.961
    21   1 H    0.994 --     3 C    0.962
    22   1 H    0.997 --     6 C    0.964
    23   1 H    0.999 --     7 C    0.971
    24   1 H    0.999 --     8 C    0.969
    25   1 H    0.999 --    10 C    0.969
    26   1 H    0.999 --    11 C    0.971
    27   1 H    0.998 --    12 C    0.970
    28   1 H    0.995 --    13 C    0.964
 ---------------------------------------------------------------------------

molecular dipole:
                 x           y           z       tot (Debye)
 q only:        6.425       0.214       3.250
   full:        6.648       0.461       3.051      18.629

           -------------------------------------------------
          | TOTAL ENERGY              -39.489547415182 Eh   |
          | GRADIENT NORM               0.000294141812 Eh/α |
          | HOMO-LUMO GAP               3.116173645242 eV   |
           -------------------------------------------------

 * finished run on 2023/01/24 at 14:58:13.223
