   * xtb version 6.5.1 (fef0646) compiled by 'conda@b96dff2e9fd6' on 2023-01-04
          program call               : xtb init.xyz --opt -c 1 -u 0 -P 16 --alpb water

   ID    Z sym.   atoms
    1    7 N      1
    2    6 C      2-7, 9, 10
    3   35 Br     8
    4    1 H      11-21

      * Solvation model:               ALPB
        Solvent                        water
        Solvent mass                       1.8000E+01 g/mol
          :  Hamiltonian                  GFN2-xTB          :
 * total energy  :   -29.4107031 Eh     change       -0.1326342E-08 Eh
 * total energy  :   -29.4131763 Eh     change       -0.2473223E-02 Eh
 * total energy  :   -29.4135892 Eh     change       -0.4128770E-03 Eh
 * total energy  :   -29.4136738 Eh     change       -0.8456024E-04 Eh
 * total energy  :   -29.4137226 Eh     change       -0.4878947E-04 Eh
 * total energy  :   -29.4137665 Eh     change       -0.4392157E-04 Eh
 * total energy  :   -29.4138010 Eh     change       -0.3456907E-04 Eh
 * total energy  :   -29.4138543 Eh     change       -0.5322634E-04 Eh
 * total energy  :   -29.4138975 Eh     change       -0.4326145E-04 Eh
 * total energy  :   -29.4139125 Eh     change       -0.1495656E-04 Eh
 * total energy  :   -29.4140015 Eh     change       -0.2908085E-04 Eh
 * total energy  :   -29.4140186 Eh     change       -0.1708084E-04 Eh
 * total energy  :   -29.4140513 Eh     change       -0.3270811E-04 Eh
 * total energy  :   -29.4140737 Eh     change       -0.2238758E-04 Eh
 * total energy  :   -29.4140861 Eh     change       -0.1234799E-04 Eh
 * total energy  :   -29.4140971 Eh     change       -0.1102423E-04 Eh
 * total energy  :   -29.4141075 Eh     change       -0.1041925E-04 Eh
 * total energy  :   -29.4141179 Eh     change       -0.1034107E-04 Eh
 * total energy  :   -29.4141220 Eh     change       -0.4140351E-05 Eh
   *** GEOMETRY OPTIMIZATION CONVERGED AFTER 22 ITERATIONS ***

 final structure:
================
21
 xtb: 6.5.1 (fef0646)
N            2.82368539474178        0.12043803298145        1.14586360385332
C            2.48118446417656       -0.28489078543340       -0.23889977071439
C            2.99665067823714        0.75362042357959       -1.23439613615065
C            4.50167998257523        0.79179566975624       -1.27407669458222
C            5.21098662489738       -0.25130612769647       -1.86110494467739
C            6.59334536193358       -0.23840677769920       -1.89898030238389
C            7.27122756773774        0.83293725676322       -1.34206631480855
Br           9.21856316407397        0.86519680783450       -1.39871416919946
C            6.59155759397374        1.88346395134664       -0.75272848963362
C            5.20723701764037        1.85307004874415       -0.71899172699933
H            2.54071851166418       -0.60092514868593        1.81853286390197
H            2.35195800847816        1.00019720551711        1.38699745630607
H            3.83723207978401        0.26715882302218        1.22434419704474
H            1.39933436757713       -0.37378899284982       -0.32796457728388
H            2.93365689026156       -1.25335685791881       -0.44900833670554
H            2.60936058618442        1.74032004871786       -0.98349639628814
H            2.62466860263018        0.49348986523822       -2.22480214306542
H            4.68554651502428       -1.07973915696592       -2.30990555938956
H            7.14111560758876       -1.04466081573370       -2.35973261530199
H            7.13671661298681        2.71246129522977       -0.33118433386040
H            4.68425436783280        2.68435523425222       -0.27222561006155

          :  Hamiltonian                  GFN2-xTB          :
         :: total energy             -29.414121993630 Eh    ::
         :: gradient norm              0.000330083777 Eh/a0 ::
         :: HOMO-LUMO gap              4.180748247312 eV    ::
         :: SCC energy               -29.854488218927 Eh    ::
         :: -> dispersion             -0.016962007247 Eh    ::
         :: -> Gsolv                  -0.131432932684 Eh    ::
         :: repulsion energy           0.440292254305 Eh    ::

    * Orbital Energies and Occupations

         #    Occupation            Energy/Eh            Energy/eV
      -------------------------------------------------------------
         1        2.0000           -0.8439017             -22.9637
       ...           ...                  ...                  ...
        15        2.0000           -0.5113089             -13.9134
        16        2.0000           -0.5059434             -13.7674
        17        2.0000           -0.4981716             -13.5559
        18        2.0000           -0.4926053             -13.4045
        19        2.0000           -0.4871864             -13.2570
        20        2.0000           -0.4742871             -12.9060
        21        2.0000           -0.4616257             -12.5615
        22        2.0000           -0.4419898             -12.0272
        23        2.0000           -0.4382562             -11.9256
        24        2.0000           -0.4370551             -11.8929
        25        2.0000           -0.4237221             -11.5301
        26        2.0000           -0.4136022             -11.2547
        27        2.0000           -0.4001341             -10.8882 (HOMO)
        28                         -0.2464944              -6.7075 (LUMO)
        29                         -0.2427373              -6.6052
        30                         -0.2073294              -5.6417
        31                         -0.1196468              -3.2558
        32                         -0.0466112              -1.2684
        33                          0.0348077               0.9472
        34                          0.0358344               0.9751
        35                          0.0381825               1.0390
        36                          0.0590140               1.6059
        37                          0.0715584               1.9472
        38                          0.0762439               2.0747
       ...                                ...                  ...
        56                          0.6336498              17.2425
      -------------------------------------------------------------
                  HL-Gap            0.1536397 Eh            4.1807 eV

     #   Z          covCN         q      C6AA      α(0)
     1   7 N        3.485    -0.156    24.361     7.331
     2   6 C        3.733    -0.039    21.364     6.597
     3   6 C        3.809    -0.099    22.379     6.734
     4   6 C        2.968     0.018    27.600     8.617
     5   6 C        2.928    -0.041    29.030     8.836
     6   6 C        2.969    -0.039    28.959     8.827
     7   6 C        2.915     0.088    26.041     8.368
     8  35 Br       1.023    -0.263   192.394    22.364
     9   6 C        2.969    -0.041    29.011     8.835
    10   6 C        2.927    -0.047    29.177     8.858
    11   1 H        0.859     0.318     0.663     1.275
    12   1 H        0.859     0.312     0.679     1.291
    13   1 H        0.859     0.295     0.730     1.338
    14   1 H        0.925     0.123     1.593     1.974
    15   1 H        0.925     0.113     1.669     2.020
    16   1 H        0.925     0.091     1.868     2.137
    17   1 H        0.925     0.094     1.840     2.121
    18   1 H        0.926     0.077     2.007     2.216
    19   1 H        0.926     0.054     2.267     2.355
    20   1 H        0.926     0.058     2.222     2.331
    21   1 H        0.926     0.084     1.940     2.178

Wiberg/Mayer (AO) data.
largest (>0.10) Wiberg bond orders for each atom

     #   Z sym  total        # sym  WBO       # sym  WBO       # sym  WBO
 ---------------------------------------------------------------------------
     1   7 N    3.656 --     2 C    0.966    13 H    0.895    12 H    0.888
                            11 H    0.886
     2   6 C    3.924 --     3 C    0.999     1 N    0.966    15 H    0.964
                            14 H    0.963
     3   6 C    3.985 --     4 C    1.012     2 C    0.999    16 H    0.966
                            17 H    0.954
     4   6 C    3.987 --    10 C    1.413     5 C    1.402     3 C    1.012
     5   6 C    3.985 --     6 C    1.445     4 C    1.402    18 H    0.963
                             9 C    0.110
     6   6 C    3.987 --     5 C    1.445     7 C    1.405    19 H    0.967
                            10 C    0.107
     7   6 C    3.905 --     9 C    1.413     6 C    1.405     8 Br   0.945
     8  35 Br   1.080 --     7 C    0.945
     9   6 C    3.986 --    10 C    1.432     7 C    1.413    20 H    0.966
                             5 C    0.110
    10   6 C    3.983 --     9 C    1.432     4 C    1.413    21 H    0.961
                             6 C    0.107
    11   1 H    0.899 --     1 N    0.886
    12   1 H    0.903 --     1 N    0.888
    13   1 H    0.913 --     1 N    0.895
    14   1 H    0.984 --     2 C    0.963
    15   1 H    0.987 --     2 C    0.964
    16   1 H    0.991 --     3 C    0.966
    17   1 H    0.991 --     3 C    0.954
    18   1 H    0.994 --     5 C    0.963
    19   1 H    0.997 --     6 C    0.967
    20   1 H    0.996 --     9 C    0.966
    21   1 H    0.993 --    10 C    0.961
 ---------------------------------------------------------------------------

molecular dipole:
                 x           y           z       tot (Debye)
 q only:        3.204       0.175       1.941
   full:        3.773       0.244       1.865      10.716

           -------------------------------------------------
          | TOTAL ENERGY              -29.414121993630 Eh   |
          | GRADIENT NORM               0.000330083777 Eh/α |
          | HOMO-LUMO GAP               4.180748247312 eV   |
           -------------------------------------------------

 * finished run on 2023/01/24 at 15:33:54.928
