   * xtb version 6.5.1 (fef0646) compiled by 'conda@b96dff2e9fd6' on 2023-01-04
          program call               : xtb init.xyz --opt -c 1 -u 0 -P 16 --input xtb.inp

   ID    Z sym.   atoms
    1    7 N      1
    2    6 C      2-7, 9, 10
    3   35 Br     8
    4    1 H      11-21

          :  Hamiltonian                  GFN2-xTB          :
 * total energy  :   -29.2937020 Eh     change       -0.1886136E-09 Eh
 * total energy  :   -29.2955778 Eh     change       -0.1875863E-02 Eh
 * total energy  :   -29.2959097 Eh     change       -0.3318413E-03 Eh
 * total energy  :   -29.2960431 Eh     change       -0.1334253E-03 Eh
 * total energy  :   -29.2961583 Eh     change       -0.1151900E-03 Eh
 * total energy  :   -29.2962514 Eh     change       -0.9315633E-04 Eh
 * total energy  :   -29.2963725 Eh     change       -0.1210615E-03 Eh
 * total energy  :   -29.2965243 Eh     change       -0.1517619E-03 Eh
 * total energy  :   -29.2966742 Eh     change       -0.1499562E-03 Eh
 * total energy  :   -29.2968003 Eh     change       -0.1260965E-03 Eh
 * total energy  :   -29.2975461 Eh     change       -0.7201614E-04 Eh
 * total energy  :   -29.2976118 Eh     change       -0.6568374E-04 Eh
 * total energy  :   -29.2976510 Eh     change       -0.3924143E-04 Eh
 * total energy  :   -29.2976673 Eh     change       -0.1629930E-04 Eh
 * total energy  :   -29.2976868 Eh     change       -0.1947817E-04 Eh
 * total energy  :   -29.2977111 Eh     change       -0.2431577E-04 Eh
 * total energy  :   -29.2977187 Eh     change       -0.7571478E-05 Eh
 * total energy  :   -29.2977249 Eh     change       -0.6162354E-05 Eh
 * total energy  :   -29.2977266 Eh     change       -0.1782337E-05 Eh
   *** GEOMETRY OPTIMIZATION CONVERGED AFTER 26 ITERATIONS ***

 final structure:
================
21
 xtb: 6.5.1 (fef0646)
N            3.11152700256778       -0.06060847203790       -0.93939525218209
C            2.56275075688881        0.50999705157941        0.32705025245667
C            3.01598540499127       -0.37908556972998        1.48624144079740
C            4.52205249914735       -0.44676166702774        1.49599363938441
C            5.26919394622383        0.51313494572507        2.17067045568632
C            6.64983469439910        0.49921096177678        2.11912142979940
C            7.30061990930020       -0.47901240509524        1.37707301838843
Br           9.20071708473997       -0.49262259342594        1.28498319190209
C            6.57397100506110       -1.45070917280393        0.70482188311894
C            5.18959465317792       -1.42713991925026        0.76038422096813
H            3.13182743844247        0.62286815430566       -1.70320600043322
H            2.56406079836762       -0.87597839355448       -1.23859244187663
H            4.08135239066767       -0.38562055093040       -0.70788740942729
H            1.47653924256332        0.56874164581181        0.26513033277502
H            2.96723496629170        1.51502049635762        0.45393474479812
H            2.58648819470213       -1.37683649330847        1.38514449962630
H            2.65045440466053        0.04853385508767        2.41857511585223
H            4.76765038120438        1.26992135782188        2.75420615915178
H            7.22315029935018        1.23883964478976        2.65441940614987
H            7.08568570372535       -2.22226151829689        0.15221844636011
H            4.63956922352789       -2.23401135779405        0.29264286670438

          :  Hamiltonian                  GFN2-xTB          :
         :: total energy             -29.297726638259 Eh    ::
         :: gradient norm              0.000273894098 Eh/a0 ::
         :: HOMO-LUMO gap              3.498859224729 eV    ::
         :: SCC energy               -29.732472425771 Eh    ::
         :: -> dispersion             -0.017479620152 Eh    ::
         :: repulsion energy           0.434661453403 Eh    ::

    * Orbital Energies and Occupations

         #    Occupation            Energy/Eh            Energy/eV
      -------------------------------------------------------------
         1        2.0000           -0.9333077             -25.3966
       ...           ...                  ...                  ...
        15        2.0000           -0.6598191             -17.9546
        16        2.0000           -0.6506563             -17.7053
        17        2.0000           -0.6364998             -17.3200
        18        2.0000           -0.6263523             -17.0439
        19        2.0000           -0.6228927             -16.9498
        20        2.0000           -0.6173646             -16.7993
        21        2.0000           -0.6137534             -16.7011
        22        2.0000           -0.5704723             -15.5233
        23        2.0000           -0.5674722             -15.4417
        24        2.0000           -0.5647968             -15.3689
        25        2.0000           -0.5530039             -15.0480
        26        2.0000           -0.5090412             -13.8517
        27        2.0000           -0.5051157             -13.7449 (HOMO)
        28                         -0.3765349             -10.2460 (LUMO)
        29                         -0.3735606             -10.1651
        30                         -0.3035858              -8.2610
        31                         -0.2561282              -6.9696
        32                         -0.2503429              -6.8122
        33                         -0.1536173              -4.1801
        34                         -0.0995076              -2.7077
        35                         -0.0917444              -2.4965
        36                         -0.0700560              -1.9063
        37                         -0.0644396              -1.7535
        38                         -0.0565513              -1.5388
       ...                                ...                  ...
        56                          0.5052409              13.7483
      -------------------------------------------------------------
                  HL-Gap            0.1285807 Eh            3.4989 eV

     #   Z          covCN         q      C6AA      α(0)
     1   7 N        3.483    -0.140    24.012     7.278
     2   6 C        3.734    -0.031    21.213     6.574
     3   6 C        3.809    -0.092    22.255     6.715
     4   6 C        2.970    -0.007    28.186     8.708
     5   6 C        2.923    -0.036    28.891     8.815
     6   6 C        2.985    -0.028    28.686     8.786
     7   6 C        2.913     0.091    25.977     8.358
     8  35 Br       1.060    -0.118   188.292    22.125
     9   6 C        2.987    -0.035    28.865     8.813
    10   6 C        2.923    -0.061    29.529     8.911
    11   1 H        0.859     0.265     0.829     1.426
    12   1 H        0.859     0.266     0.823     1.421
    13   1 H        0.857     0.278     0.783     1.386
    14   1 H        0.925     0.107     1.722     2.052
    15   1 H        0.924     0.106     1.728     2.056
    16   1 H        0.924     0.075     2.037     2.232
    17   1 H        0.925     0.099     1.798     2.097
    18   1 H        0.926     0.062     2.171     2.304
    19   1 H        0.926     0.081     1.972     2.196
    20   1 H        0.926     0.074     2.038     2.232
    21   1 H        0.925     0.044     2.396     2.421

Wiberg/Mayer (AO) data.
largest (>0.10) Wiberg bond orders for each atom

     #   Z sym  total        # sym  WBO       # sym  WBO       # sym  WBO
 ---------------------------------------------------------------------------
     1   7 N    3.668 --     2 C    0.933    11 H    0.916    12 H    0.914
                            13 H    0.854
     2   6 C    3.896 --     3 C    0.995    15 H    0.968    14 H    0.967
                             1 N    0.933
     3   6 C    3.979 --     4 C    1.006     2 C    0.995    16 H    0.968
                            17 H    0.959
     4   6 C    3.987 --     5 C    1.401    10 C    1.389     3 C    1.006
     5   6 C    3.990 --     6 C    1.455     4 C    1.401    18 H    0.965
                             9 C    0.107
     6   6 C    3.987 --     5 C    1.455     7 C    1.391    19 H    0.964
                            10 C    0.103
     7   6 C    3.949 --     9 C    1.403     6 C    1.391     8 Br   1.025
     8  35 Br   1.182 --     7 C    1.025
     9   6 C    3.987 --    10 C    1.433     7 C    1.403    20 H    0.965
                             5 C    0.107
    10   6 C    3.990 --     9 C    1.433     4 C    1.389    21 H    0.960
                             6 C    0.103
    11   1 H    0.930 --     1 N    0.916
    12   1 H    0.929 --     1 N    0.914
    13   1 H    0.923 --     1 N    0.854
    14   1 H    0.987 --     2 C    0.967
    15   1 H    0.989 --     2 C    0.968
    16   1 H    0.994 --     3 C    0.968
    17   1 H    0.990 --     3 C    0.959
    18   1 H    0.996 --     5 C    0.965
    19   1 H    0.993 --     6 C    0.964
    20   1 H    0.994 --     9 C    0.965
    21   1 H    0.998 --    10 C    0.960
 ---------------------------------------------------------------------------

molecular dipole:
                 x           y           z       tot (Debye)
 q only:        5.699       0.030      -0.775
   full:        5.674      -0.065      -0.870      14.590

           -------------------------------------------------
          | TOTAL ENERGY              -29.297726638259 Eh   |
          | GRADIENT NORM               0.000273894098 Eh/α |
          | HOMO-LUMO GAP               3.498859224729 eV   |
           -------------------------------------------------

 * finished run on 2023/01/23 at 19:15:51.866
