   * xtb version 6.5.1 (fef0646) compiled by 'conda@b96dff2e9fd6' on 2023-01-04
          program call               : xtb init.xyz --opt -c 1 -u 0 -P 16 --alpb water

   ID    Z sym.   atoms
    1    7 N      1
    2    6 C      2-9
    3    1 H      10-25

      * Solvation model:               ALPB
        Solvent                        water
        Solvent mass                       1.8000E+01 g/mol
          :  Hamiltonian                  GFN2-xTB          :
 * total energy  :   -27.8807437 Eh     change       -0.6526335E-10 Eh
 * total energy  :   -27.8824821 Eh     change       -0.1738316E-02 Eh
 * total energy  :   -27.8828736 Eh     change       -0.3914964E-03 Eh
 * total energy  :   -27.8830572 Eh     change       -0.1836474E-03 Eh
 * total energy  :   -27.8831931 Eh     change       -0.1358849E-03 Eh
 * total energy  :   -27.8832611 Eh     change       -0.6800803E-04 Eh
 * total energy  :   -27.8833131 Eh     change       -0.5197769E-04 Eh
 * total energy  :   -27.8833554 Eh     change       -0.4229720E-04 Eh
 * total energy  :   -27.8833949 Eh     change       -0.3954985E-04 Eh
 * total energy  :   -27.8834146 Eh     change       -0.1962504E-04 Eh
 * total energy  :   -27.8834214 Eh     change       -0.6857755E-05 Eh
 * total energy  :   -27.8834223 Eh     change       -0.8615572E-06 Eh
 * total energy  :   -27.8834251 Eh     change       -0.2785493E-05 Eh
   *** GEOMETRY OPTIMIZATION CONVERGED AFTER 13 ITERATIONS ***

 final structure:
================
25
 xtb: 6.5.1 (fef0646)
N            2.89635695641032        1.09201513665765        0.40016643975403
C            2.51895749178322       -0.32983992339182        0.21824686101444
C            3.05112186680194       -0.83126645503271       -1.12493212232959
C            4.55949481746464       -0.84433209183656       -1.14532354371525
C            5.26502702254215        0.15525070916718       -1.66315853285251
C            6.76112538693312        0.19427982481647       -1.71217648949325
C            7.36718737712611       -1.18026833231980       -1.44076225317858
C            6.68818142082339       -1.81220877097126       -0.23011950646830
C            5.21209406957939       -2.05284783859115       -0.53666415501747
H            2.68648188840129        1.41812451616380        1.34968352288485
H            2.39616338567262        1.68288557810231       -0.27366967921904
H            3.90567058269912        1.18581660145118        0.21898147781183
H            1.43512233864552       -0.42723685500151        0.25174511212994
H            2.94951432673992       -0.91759244038336        1.02822735985827
H            2.67235829089123       -0.20209377828627       -1.93038938867146
H            2.68357764986537       -1.84328777244218       -1.29091431188264
H            4.77038243905618        1.00284832565886       -2.11888291922674
H            7.13157341840041        0.91035381648064       -0.97059431804430
H            7.08440730110909        0.55969857413429       -2.69017870346927
H            8.44239917560824       -1.09032285090943       -1.27425917201567
H            7.21983363236365       -1.82342247619119       -2.31151485019442
H            6.79030892068493       -1.14360396327689        0.62699800603532
H            7.17413987571785       -2.75564726413706        0.02557988810294
H            4.68815836488456       -2.35262459758829        0.37321888505512
H            5.12089199979566       -2.88566767227288       -1.24182760686820

          :  Hamiltonian                  GFN2-xTB          :
         :: total energy             -27.883425056539 Eh    ::
         :: gradient norm              0.000272515160 Eh/a0 ::
         :: HOMO-LUMO gap              5.035514601440 eV    ::
         :: SCC energy               -28.312094271102 Eh    ::
         :: -> dispersion             -0.017233761447 Eh    ::
         :: -> Gsolv                  -0.113573528243 Eh    ::
         :: repulsion energy           0.428514782901 Eh    ::

    * Orbital Energies and Occupations

         #    Occupation            Energy/Eh            Energy/eV
      -------------------------------------------------------------
         1        2.0000           -0.6918459             -18.8261
       ...           ...                  ...                  ...
        14        2.0000           -0.4998359             -13.6012
        15        2.0000           -0.4956622             -13.4877
        16        2.0000           -0.4917487             -13.3812
        17        2.0000           -0.4848512             -13.1935
        18        2.0000           -0.4768709             -12.9763
        19        2.0000           -0.4664555             -12.6929
        20        2.0000           -0.4598199             -12.5123
        21        2.0000           -0.4554589             -12.3937
        22        2.0000           -0.4495140             -12.2319
        23        2.0000           -0.4260139             -11.5924
        24        2.0000           -0.4177773             -11.3683
        25        2.0000           -0.4105269             -11.1710
        26        2.0000           -0.3838279             -10.4445 (HOMO)
        27                         -0.1987762              -5.4090 (LUMO)
        28                         -0.0442940              -1.2053
        29                          0.0554151               1.5079
        30                          0.0685009               1.8640
        31                          0.0898746               2.4456
        32                          0.0980509               2.6681
        33                          0.1068062               2.9063
        34                          0.1110642               3.0222
        35                          0.1191284               3.2416
        36                          0.1259908               3.4284
        37                          0.1407059               3.8288
       ...                                ...                  ...
        52                          0.6366976              17.3254
      -------------------------------------------------------------
                  HL-Gap            0.1850518 Eh            5.0355 eV

     #   Z          covCN         q      C6AA      α(0)
     1   7 N        3.485    -0.155    24.352     7.329
     2   6 C        3.733    -0.036    21.308     6.589
     3   6 C        3.809    -0.096    22.317     6.724
     4   6 C        2.945    -0.002    28.077     8.691
     5   6 C        2.898    -0.066    29.634     8.926
     6   6 C        3.808    -0.063    21.704     6.632
     7   6 C        3.807    -0.059    21.622     6.619
     8   6 C        3.806    -0.061    21.669     6.627
     9   6 C        3.811    -0.072    21.870     6.657
    10   1 H        0.859     0.317     0.665     1.278
    11   1 H        0.859     0.308     0.691     1.302
    12   1 H        0.859     0.292     0.738     1.346
    13   1 H        0.925     0.113     1.668     2.020
    14   1 H        0.925     0.107     1.724     2.053
    15   1 H        0.925     0.075     2.032     2.229
    16   1 H        0.925     0.076     2.024     2.225
    17   1 H        0.925     0.045     2.388     2.416
    18   1 H        0.924     0.046     2.372     2.408
    19   1 H        0.924     0.031     2.566     2.505
    20   1 H        0.924     0.017     2.784     2.609
    21   1 H        0.924     0.026     2.646     2.544
    22   1 H        0.924     0.042     2.424     2.435
    23   1 H        0.924     0.020     2.733     2.585
    24   1 H        0.924     0.054     2.269     2.356
    25   1 H        0.924     0.042     2.428     2.437

Wiberg/Mayer (AO) data.
largest (>0.10) Wiberg bond orders for each atom

     #   Z sym  total        # sym  WBO       # sym  WBO       # sym  WBO
 ---------------------------------------------------------------------------
     1   7 N    3.657 --     2 C    0.966    11 H    0.891    12 H    0.888
                            10 H    0.886
     2   6 C    3.927 --     3 C    0.997     1 N    0.966    13 H    0.965
                            14 H    0.965
     3   6 C    3.989 --     4 C    1.006     2 C    0.997    15 H    0.968
                            16 H    0.962
     4   6 C    3.987 --     5 C    1.873     9 C    1.013     3 C    1.006
     5   6 C    3.987 --     4 C    1.873     6 C    1.024    17 H    0.963
     6   6 C    3.997 --     5 C    1.024     7 C    1.006    19 H    0.967
                            18 H    0.958
     7   6 C    3.998 --     8 C    1.009     6 C    1.006    21 H    0.979
                            20 H    0.979
     8   6 C    3.997 --     7 C    1.009     9 C    1.006    23 H    0.979
                            22 H    0.977
     9   6 C    3.997 --     4 C    1.013     8 C    1.006    24 H    0.963
                            25 H    0.957
    10   1 H    0.900 --     1 N    0.886
    11   1 H    0.905 --     1 N    0.891
    12   1 H    0.915 --     1 N    0.888
    13   1 H    0.987 --     2 C    0.965
    14   1 H    0.989 --     2 C    0.965
    15   1 H    0.994 --     3 C    0.968
    16   1 H    0.994 --     3 C    0.962
    17   1 H    0.998 --     5 C    0.963
    18   1 H    0.998 --     6 C    0.958
    19   1 H    0.999 --     6 C    0.967
    20   1 H    0.999 --     7 C    0.979
    21   1 H    0.999 --     7 C    0.979
    22   1 H    0.998 --     8 C    0.977
    23   1 H    0.999 --     8 C    0.979
    24   1 H    0.997 --     9 C    0.963
    25   1 H    0.998 --     9 C    0.957
 ---------------------------------------------------------------------------

molecular dipole:
                 x           y           z       tot (Debye)
 q only:        5.228       1.756       0.733
   full:        5.462       1.771       0.672      14.693

           -------------------------------------------------
          | TOTAL ENERGY              -27.883425056539 Eh   |
          | GRADIENT NORM               0.000272515160 Eh/α |
          | HOMO-LUMO GAP               5.035514601440 eV   |
           -------------------------------------------------

 * finished run on 2023/01/24 at 14:57:45.300
