   * xtb version 6.5.1 (fef0646) compiled by 'conda@b96dff2e9fd6' on 2023-01-04
          program call               : xtb init.xyz --opt -c 1 -u 0 -P 16 --input xtb.inp

   ID    Z sym.   atoms
    1    7 N      1
    2    6 C      2, 3, 5
    3   16 S      4
    4    1 H      6-15

          :  Hamiltonian                  GFN2-xTB          :
 * total energy  :   -17.2393719 Eh     change       -0.2188507E-09 Eh
 * total energy  :   -17.2408182 Eh     change       -0.1446317E-02 Eh
 * total energy  :   -17.2411847 Eh     change       -0.3664750E-03 Eh
 * total energy  :   -17.2412940 Eh     change       -0.1092671E-03 Eh
 * total energy  :   -17.2413860 Eh     change       -0.9201719E-04 Eh
 * total energy  :   -17.2414875 Eh     change       -0.1015127E-03 Eh
 * total energy  :   -17.2416263 Eh     change       -0.1388035E-03 Eh
 * total energy  :   -17.2417694 Eh     change       -0.1430460E-03 Eh
 * total energy  :   -17.2419095 Eh     change       -0.1401399E-03 Eh
 * total energy  :   -17.2419815 Eh     change       -0.7201472E-04 Eh
 * total energy  :   -17.2426843 Eh     change       -0.5184005E-04 Eh
 * total energy  :   -17.2427272 Eh     change       -0.4286228E-04 Eh
 * total energy  :   -17.2427703 Eh     change       -0.4311758E-04 Eh
 * total energy  :   -17.2427881 Eh     change       -0.1774953E-04 Eh
 * total energy  :   -17.2427988 Eh     change       -0.1072538E-04 Eh
 * total energy  :   -17.2428066 Eh     change       -0.7837687E-05 Eh
 * total energy  :   -17.2428149 Eh     change       -0.8237172E-05 Eh
 * total energy  :   -17.2428206 Eh     change       -0.5735861E-05 Eh
 * total energy  :   -17.2428245 Eh     change       -0.3864012E-05 Eh
   *** GEOMETRY OPTIMIZATION CONVERGED AFTER 28 ITERATIONS ***

 final structure:
================
15
 xtb: 6.5.1 (fef0646)
N            3.15678727721263       -1.39564463137438       -0.07264307237536
C            2.38605480373889       -0.13084093068394        0.06019753977762
C            2.93555594690456        0.62350158119946        1.26496186434033
S            4.78054766240147        0.65298839531157        1.11423092754260
C            5.26333185808335        0.43696051892969        2.84654433206947
H            3.15637001980445       -1.76647403201669       -1.02630709978869
H            2.82201683226708       -2.12096576007670        0.56874477101864
H            4.14278847593464       -1.07869931744523        0.22274988436063
H            1.32042087900466       -0.33284432619571        0.17228900156468
H            2.54212137129318        0.46257695783668       -0.84182179055585
H            2.68567051613704        0.12894391387816        2.20246676799869
H            2.55635329112355        1.64277999708758        1.28551079978010
H            6.34862744751526        0.41405268645694        2.85749798865620
H            4.86691244828157       -0.49477835977993        3.23821119977246
H            4.90879117029780        1.28763330687294        3.42035688583891

          :  Hamiltonian                  GFN2-xTB          :
         :: total energy             -17.242824451621 Eh    ::
         :: gradient norm              0.000489174773 Eh/a0 ::
         :: HOMO-LUMO gap              4.428152201273 eV    ::
         :: SCC energy               -17.443393520792 Eh    ::
         :: -> dispersion             -0.007575363411 Eh    ::
         :: repulsion energy           0.200553110893 Eh    ::

    * Orbital Energies and Occupations

         #    Occupation            Energy/Eh            Energy/eV
      -------------------------------------------------------------
         1        2.0000           -0.8867870             -24.1307
       ...           ...                  ...                  ...
         4        2.0000           -0.7948651             -21.6294
         5        2.0000           -0.7865992             -21.4045
         6        2.0000           -0.7729462             -21.0329
         7        2.0000           -0.7427579             -20.2115
         8        2.0000           -0.7314136             -19.9028
         9        2.0000           -0.6904778             -18.7889
        10        2.0000           -0.6688509             -18.2004
        11        2.0000           -0.6565227             -17.8649
        12        2.0000           -0.6401940             -17.4206
        13        2.0000           -0.6362396             -17.3130
        14        2.0000           -0.6170936             -16.7920
        15        2.0000           -0.5997570             -16.3202
        16        2.0000           -0.5235228             -14.2458 (HOMO)
        17                         -0.3607912              -9.8176 (LUMO)
        18                         -0.3080204              -8.3817
        19                         -0.2559398              -6.9645
        20                         -0.1851433              -5.0380
        21                         -0.1612601              -4.3881
        22                         -0.1457019              -3.9648
        23                         -0.1234485              -3.3592
        24                         -0.0877833              -2.3887
        25                         -0.0678473              -1.8462
        26                         -0.0628762              -1.7109
        27                         -0.0214933              -0.5849
       ...                                ...                  ...
        35                          0.2494371               6.7875
      -------------------------------------------------------------
                  HL-Gap            0.1627316 Eh            4.4282 eV

     #   Z          covCN         q      C6AA      α(0)
     1   7 N        3.485    -0.156    24.371     7.332
     2   6 C        3.776    -0.033    21.196     6.560
     3   6 C        3.794    -0.052    21.508     6.604
     4  16 S        2.042    -0.148   147.309    20.428
     5   6 C        3.745    -0.066    21.840     6.666
     6   1 H        0.859     0.267     0.821     1.419
     7   1 H        0.859     0.263     0.834     1.431
     8   1 H        0.908     0.285     0.756     1.360
     9   1 H        0.924     0.113     1.674     2.023
    10   1 H        0.924     0.117     1.638     2.001
    11   1 H        0.925     0.082     1.959     2.189
    12   1 H        0.925     0.099     1.793     2.094
    13   1 H        0.925     0.088     1.896     2.153
    14   1 H        0.925     0.064     2.150     2.293
    15   1 H        0.925     0.077     2.005     2.214

Wiberg/Mayer (AO) data.
largest (>0.10) Wiberg bond orders for each atom

     #   Z sym  total        # sym  WBO       # sym  WBO       # sym  WBO
 ---------------------------------------------------------------------------
     1   7 N    3.653 --     2 C    0.951     7 H    0.916     6 H    0.915
                             8 H    0.800
     2   6 C    3.913 --     3 C    1.016    10 H    0.965     9 H    0.963
                             1 N    0.951
     3   6 C    3.975 --     2 C    1.016     4 S    0.989    11 H    0.969
                            12 H    0.967
     4  16 S    2.225 --     5 C    1.007     3 C    0.989     8 H    0.103
     5   6 C    3.961 --     4 S    1.007    14 H    0.982    15 H    0.980
                            13 H    0.972
     6   1 H    0.929 --     1 N    0.915
     7   1 H    0.931 --     1 N    0.916
     8   1 H    0.919 --     1 N    0.800     4 S    0.103
     9   1 H    0.987 --     2 C    0.963
    10   1 H    0.986 --     2 C    0.965
    11   1 H    0.993 --     3 C    0.969
    12   1 H    0.990 --     3 C    0.967
    13   1 H    0.992 --     5 C    0.972
    14   1 H    0.996 --     5 C    0.982
    15   1 H    0.994 --     5 C    0.980
 ---------------------------------------------------------------------------

molecular dipole:
                 x           y           z       tot (Debye)
 q only:        5.965      -1.848       0.914
   full:        5.959      -1.850       1.284      16.191

           -------------------------------------------------
          | TOTAL ENERGY              -17.242824451621 Eh   |
          | GRADIENT NORM               0.000489174773 Eh/α |
          | HOMO-LUMO GAP               4.428152201273 eV   |
           -------------------------------------------------

 * finished run on 2023/01/23 at 21:06:05.548
