   * xtb version 6.5.1 (fef0646) compiled by 'conda@b96dff2e9fd6' on 2023-01-04
          program call               : xtb init.xyz --opt -c 1 -u 0 -P 16

   ID    Z sym.   atoms
    1    7 N      1
    2    6 C      2-7, 9, 10
    3    9 F      8
    4    1 H      11-21

          :  Hamiltonian                  GFN2-xTB          :
 * total energy  :   -29.9442867 Eh     change       -0.1013699E-08 Eh
 * total energy  :   -29.9462083 Eh     change       -0.1921617E-02 Eh
 * total energy  :   -29.9465688 Eh     change       -0.3605066E-03 Eh
 * total energy  :   -29.9467137 Eh     change       -0.1448734E-03 Eh
 * total energy  :   -29.9468326 Eh     change       -0.1188533E-03 Eh
 * total energy  :   -29.9469302 Eh     change       -0.9766165E-04 Eh
 * total energy  :   -29.9470518 Eh     change       -0.1215808E-03 Eh
 * total energy  :   -29.9472005 Eh     change       -0.1487347E-03 Eh
 * total energy  :   -29.9473323 Eh     change       -0.1317619E-03 Eh
 * total energy  :   -29.9474304 Eh     change       -0.9813199E-04 Eh
 * total energy  :   -29.9483496 Eh     change       -0.1030656E-03 Eh
 * total energy  :   -29.9484095 Eh     change       -0.5986466E-04 Eh
 * total energy  :   -29.9484306 Eh     change       -0.2112599E-04 Eh
 * total energy  :   -29.9484407 Eh     change       -0.1013205E-04 Eh
 * total energy  :   -29.9484603 Eh     change       -0.1956029E-04 Eh
 * total energy  :   -29.9484799 Eh     change       -0.1965124E-04 Eh
 * total energy  :   -29.9484880 Eh     change       -0.8029464E-05 Eh
 * total energy  :   -29.9484946 Eh     change       -0.6639028E-05 Eh
 * total energy  :   -29.9484967 Eh     change       -0.2101134E-05 Eh
   *** GEOMETRY OPTIMIZATION CONVERGED AFTER 26 ITERATIONS ***

 final structure:
================
21
 xtb: 6.5.1 (fef0646)
N            3.01691525209633        0.40632746283432       -1.03496782931121
C            2.48061669756640        1.39269873878270       -0.05011241209102
C            2.96183699571016        0.98390090610123        1.34305432787414
C            4.46884123705531        0.92836963785373        1.34770207862060
C            5.21550903163427        2.07041316621276        1.61867867816568
C            6.59540115265160        2.04452756136417        1.55303309779661
C            7.22864945995954        0.86140325734948        1.20278130885472
F            8.55980322735391        0.83192882114623        1.12482782560929
C            6.51380988052519       -0.29311962263393        0.93325924959160
C            5.13011352709725       -0.25104891250445        1.00161196674065
H            3.02577803335015        0.77067244688868       -1.99299513923002
H            2.47005096665611       -0.46230926020174       -1.01561259726106
H            3.99109142885131        0.18667591120435       -0.71290460739539
H            1.39296530084838        1.41955907385127       -0.10882998692139
H            2.87545544565160        2.37791371062797       -0.30150682466748
H            2.54015331324026        0.01600500690695        1.61745023887038
H            2.60789307540300        1.71825540187562        2.06480011748207
H            4.71357539423776        2.98350190849727        1.89926649552872
H            7.18481919103680        2.91914412199148        1.77492422063523
H            7.03709991297009       -1.20335797768597        0.68939958912053
H            4.57701147610519       -1.17211136046337        0.86763020198855

          :  Hamiltonian                  GFN2-xTB          :
         :: total energy             -29.948496694086 Eh    ::
         :: gradient norm              0.000221690820 Eh/a0 ::
         :: HOMO-LUMO gap              4.403160286356 eV    ::
         :: SCC energy               -30.389005184211 Eh    ::
         :: -> dispersion             -0.015498778231 Eh    ::
         :: repulsion energy           0.440413438160 Eh    ::

    * Orbital Energies and Occupations

         #    Occupation            Energy/Eh            Energy/eV
      -------------------------------------------------------------
         1        2.0000           -0.9282460             -25.2589
       ...           ...                  ...                  ...
        15        2.0000           -0.6648985             -18.0928
        16        2.0000           -0.6610131             -17.9871
        17        2.0000           -0.6495630             -17.6755
        18        2.0000           -0.6443995             -17.5350
        19        2.0000           -0.6293922             -17.1266
        20        2.0000           -0.6248720             -17.0036
        21        2.0000           -0.6200148             -16.8715
        22        2.0000           -0.6056434             -16.4804
        23        2.0000           -0.5938417             -16.1593
        24        2.0000           -0.5872598             -15.9802
        25        2.0000           -0.5583635             -15.1938
        26        2.0000           -0.5533506             -15.0574
        27        2.0000           -0.5367182             -14.6048 (HOMO)
        28                         -0.3749050             -10.2017 (LUMO)
        29                         -0.3691310             -10.0446
        30                         -0.2554028              -6.9499
        31                         -0.2423977              -6.5960
        32                         -0.1532796              -4.1710
        33                         -0.0990910              -2.6964
        34                         -0.0912607              -2.4833
        35                         -0.0670545              -1.8246
        36                         -0.0495313              -1.3478
        37                         -0.0463808              -1.2621
        38                         -0.0021922              -0.0597
       ...                                ...                  ...
        51                          0.5129097              13.9570
      -------------------------------------------------------------
                  HL-Gap            0.1618132 Eh            4.4032 eV

     #   Z          covCN         q      C6AA      α(0)
     1   7 N        3.483    -0.140    24.026     7.280
     2   6 C        3.734    -0.031    21.219     6.574
     3   6 C        3.809    -0.093    22.261     6.716
     4   6 C        2.970    -0.009    28.240     8.717
     5   6 C        2.925    -0.036    28.905     8.817
     6   6 C        2.916    -0.040    28.998     8.830
     7   6 C        2.785     0.182    24.088     8.039
     8   9 F        0.788    -0.192    11.153     3.945
     9   6 C        2.914    -0.048    29.190     8.860
    10   6 C        2.925    -0.063    29.555     8.915
    11   1 H        0.859     0.264     0.830     1.427
    12   1 H        0.859     0.266     0.823     1.421
    13   1 H        0.857     0.278     0.782     1.386
    14   1 H        0.925     0.107     1.722     2.052
    15   1 H        0.924     0.106     1.728     2.056
    16   1 H        0.924     0.075     2.032     2.229
    17   1 H        0.925     0.099     1.796     2.095
    18   1 H        0.926     0.064     2.156     2.296
    19   1 H        0.926     0.086     1.918     2.166
    20   1 H        0.926     0.079     1.990     2.206
    21   1 H        0.925     0.045     2.379     2.412

Wiberg/Mayer (AO) data.
largest (>0.10) Wiberg bond orders for each atom

     #   Z sym  total        # sym  WBO       # sym  WBO       # sym  WBO
 ---------------------------------------------------------------------------
     1   7 N    3.667 --     2 C    0.933    11 H    0.916    12 H    0.914
                            13 H    0.852
     2   6 C    3.897 --     3 C    0.995    15 H    0.968    14 H    0.967
                             1 N    0.933
     3   6 C    3.979 --     4 C    1.006     2 C    0.995    16 H    0.968
                            17 H    0.959
     4   6 C    3.987 --     5 C    1.404    10 C    1.392     3 C    1.006
     5   6 C    3.989 --     6 C    1.456     4 C    1.404    18 H    0.966
                             9 C    0.108
     6   6 C    3.987 --     5 C    1.456     7 C    1.380    19 H    0.963
                            10 C    0.105
     7   6 C    3.895 --     9 C    1.393     6 C    1.380     8 F    0.991
     8   9 F    1.136 --     7 C    0.991
     9   6 C    3.987 --    10 C    1.432     7 C    1.393    20 H    0.964
                             5 C    0.108
    10   6 C    3.990 --     9 C    1.432     4 C    1.392    21 H    0.961
                             6 C    0.105
    11   1 H    0.930 --     1 N    0.916
    12   1 H    0.929 --     1 N    0.914
    13   1 H    0.923 --     1 N    0.852
    14   1 H    0.987 --     2 C    0.967
    15   1 H    0.989 --     2 C    0.968
    16   1 H    0.994 --     3 C    0.968
    17   1 H    0.990 --     3 C    0.959
    18   1 H    0.996 --     5 C    0.966
    19   1 H    0.992 --     6 C    0.963
    20   1 H    0.993 --     9 C    0.964
    21   1 H    0.998 --    10 C    0.961
 ---------------------------------------------------------------------------

molecular dipole:
                 x           y           z       tot (Debye)
 q only:        5.523       1.268      -1.062
   full:        5.530       1.134      -1.206      14.673

           -------------------------------------------------
          | TOTAL ENERGY              -29.948496694086 Eh   |
          | GRADIENT NORM               0.000221690820 Eh/α |
          | HOMO-LUMO GAP               4.403160286356 eV   |
           -------------------------------------------------

 * finished run on 2023/01/23 at 14:07:45.843
