   * xtb version 6.5.1 (fef0646) compiled by 'conda@b96dff2e9fd6' on 2023-01-04
          program call               : xtb init.xyz --opt -c 0 -u 0 -P 16 --alpb water

   ID    Z sym.   atoms
    1    7 N      1
    2    6 C      2-9
    3   17 Cl     10
    4    1 H      11-22

      * Solvation model:               ALPB
        Solvent                        water
        Solvent mass                       1.8000E+01 g/mol
          :  Hamiltonian                  GFN2-xTB          :
 * total energy  :   -30.7325070 Eh     change       -0.5932854E-09 Eh
 * total energy  :   -30.7378896 Eh     change       -0.5382514E-02 Eh
 * total energy  :   -30.7391655 Eh     change       -0.1275954E-02 Eh
 * total energy  :   -30.7397583 Eh     change       -0.5927796E-03 Eh
 * total energy  :   -30.7404425 Eh     change       -0.6841833E-03 Eh
 * total energy  :   -30.7414704 Eh     change       -0.1027954E-02 Eh
 * total energy  :   -30.7422864 Eh     change       -0.8159554E-03 Eh
 * total energy  :   -30.7429454 Eh     change       -0.6590180E-03 Eh
 * total energy  :   -30.7432312 Eh     change       -0.2858297E-03 Eh
 * total energy  :   -30.7434044 Eh     change       -0.1731657E-03 Eh
 * total energy  :   -30.7437092 Eh     change       -0.1883592E-03 Eh
 * total energy  :   -30.7438414 Eh     change       -0.1321903E-03 Eh
 * total energy  :   -30.7439956 Eh     change       -0.1542661E-03 Eh
 * total energy  :   -30.7440746 Eh     change       -0.7896239E-04 Eh
 * total energy  :   -30.7440668 Eh     change        0.7762520E-05 Eh
 * total energy  :   -30.7441075 Eh     change       -0.4065650E-04 Eh
 * total energy  :   -30.7441142 Eh     change       -0.6679468E-05 Eh
 * total energy  :   -30.7441207 Eh     change       -0.6486191E-05 Eh
 * total energy  :   -30.7441235 Eh     change       -0.2827878E-05 Eh
   *** GEOMETRY OPTIMIZATION CONVERGED AFTER 20 ITERATIONS ***

 final structure:
================
22
 xtb: 6.5.1 (fef0646)
N            0.94790580386739       -0.34125416318872       -0.00737019005914
C            2.42121066236780       -0.30998549695780       -0.08331337722176
C            3.01721722379703       -1.69506173357122        0.17878807640050
C            4.51963843195271       -1.61375845484820        0.15282730912014
C            5.22148904539793       -1.23935593631220        1.29187479255026
C            6.60013948012548       -1.12816217743106        1.26560356097034
C            7.29537642493882       -1.38942415574558        0.09668080811685
C            6.60457525277295       -1.76316325247809       -1.04350552965286
C            5.22513547624399       -1.87235851715766       -1.01483154577772
Cl          -0.14277854741428        2.44924316238819       -0.54440143410499
H            0.55533249046126        0.61591332796311       -0.20034722611886
H            0.63786436061344       -0.61867277751062        0.92640332466879
H            0.55645030625171       -0.98193900267660       -0.70190315378883
H            2.79286890612231        0.40529043474867        0.64947620863996
H            2.71384547174908        0.04591733934697       -1.07058560541158
H            2.68010008996487       -2.39388426285653       -0.58640713947041
H            2.69494804570301       -2.05582125936279        1.15557641994903
H            4.68798427239847       -1.03626476376478        2.20860162180790
H            7.13543551482730       -0.83781380434916        2.15771551835861
H            8.37159555767140       -1.30290702472828        0.07508675749311
H            7.14310736464587       -1.96976585522646       -1.95670425023916
H            4.69530836554126       -2.16534162628163       -1.90919494623001

          :  Hamiltonian                  GFN2-xTB          :
         :: total energy             -30.744123499007 Eh    ::
         :: gradient norm              0.000895383184 Eh/a0 ::
         :: HOMO-LUMO gap              4.750578733771 eV    ::
         :: SCC energy               -31.195575440366 Eh    ::
         :: -> dispersion             -0.016070851280 Eh    ::
         :: -> Gsolv                  -0.073419083065 Eh    ::
         :: repulsion energy           0.451457514317 Eh    ::

    * Orbital Energies and Occupations

         #    Occupation            Energy/Eh            Energy/eV
      -------------------------------------------------------------
         1        2.0000           -1.0066866             -27.3933
       ...           ...                  ...                  ...
        16        2.0000           -0.4791793             -13.0391
        17        2.0000           -0.4776869             -12.9985
        18        2.0000           -0.4709969             -12.8165
        19        2.0000           -0.4687721             -12.7559
        20        2.0000           -0.4589844             -12.4896
        21        2.0000           -0.4391011             -11.9485
        22        2.0000           -0.4207364             -11.4488
        23        2.0000           -0.4149137             -11.2904
        24        2.0000           -0.4043545             -11.0030
        25        2.0000           -0.4005787             -10.9003
        26        2.0000           -0.4005626             -10.8999
        27        2.0000           -0.3986243             -10.8471
        28        2.0000           -0.3927343             -10.6868 (HOMO)
        29                         -0.2181537              -5.9363 (LUMO)
        30                         -0.2172249              -5.9110
        31                         -0.0896667              -2.4400
        32                         -0.0239639              -0.6521
        33                          0.0790580               2.1513
        34                          0.0943883               2.5684
        35                          0.1164001               3.1674
        36                          0.1165776               3.1722
        37                          0.1184053               3.2220
        38                          0.1191449               3.2421
        39                          0.1191970               3.2435
       ...                                ...                  ...
        57                          0.6692718              18.2118
      -------------------------------------------------------------
                  HL-Gap            0.1745806 Eh            4.7506 eV

     #   Z          covCN         q      C6AA      α(0)
     1   7 N        3.483    -0.166    24.585     7.364
     2   6 C        3.735    -0.019    20.992     6.539
     3   6 C        3.808    -0.090    22.214     6.709
     4   6 C        2.972     0.013    27.713     8.635
     5   6 C        2.925    -0.045    29.130     8.851
     6   6 C        2.919    -0.036    28.897     8.815
     7   6 C        2.920    -0.038    28.945     8.823
     8   6 C        2.919    -0.036    28.896     8.815
     9   6 C        2.925    -0.045    29.123     8.850
    10  17 Cl       0.058    -0.946   124.820    17.003
    11   1 H        0.915     0.295     0.725     1.332
    12   1 H        0.859     0.299     0.717     1.327
    13   1 H        0.859     0.299     0.716     1.325
    14   1 H        0.925     0.094     1.840     2.121
    15   1 H        0.925     0.094     1.839     2.121
    16   1 H        0.925     0.075     2.035     2.231
    17   1 H        0.925     0.077     2.015     2.220
    18   1 H        0.926     0.045     2.388     2.417
    19   1 H        0.926     0.030     2.580     2.512
    20   1 H        0.926     0.026     2.638     2.540
    21   1 H        0.926     0.031     2.579     2.511
    22   1 H        0.926     0.044     2.396     2.421

Wiberg/Mayer (AO) data.
largest (>0.10) Wiberg bond orders for each atom

     #   Z sym  total        # sym  WBO       # sym  WBO       # sym  WBO
 ---------------------------------------------------------------------------
     1   7 N    3.646 --     2 C    0.970    12 H    0.896    13 H    0.896
                            11 H    0.829
     2   6 C    3.932 --     3 C    0.993     1 N    0.970    15 H    0.969
                            14 H    0.969
     3   6 C    3.989 --     4 C    1.007     2 C    0.993    16 H    0.969
                            17 H    0.967
     4   6 C    3.989 --     9 C    1.416     5 C    1.412     3 C    1.007
                             7 C    0.110
     5   6 C    3.991 --     6 C    1.447     4 C    1.412    18 H    0.968
                             8 C    0.112
     6   6 C    3.992 --     5 C    1.447     7 C    1.437    19 H    0.971
                             9 C    0.111
     7   6 C    3.992 --     8 C    1.440     6 C    1.437    20 H    0.972
                             4 C    0.110
     8   6 C    3.992 --     9 C    1.443     7 C    1.440    21 H    0.971
                             5 C    0.112
     9   6 C    3.991 --     8 C    1.443     4 C    1.416    22 H    0.968
                             6 C    0.111
    10  17 Cl   0.105
    11   1 H    0.913 --     1 N    0.829
    12   1 H    0.911 --     1 N    0.896
    13   1 H    0.911 --     1 N    0.896
    14   1 H    0.991 --     2 C    0.969
    15   1 H    0.991 --     2 C    0.969
    16   1 H    0.994 --     3 C    0.969
    17   1 H    0.994 --     3 C    0.967
    18   1 H    0.998 --     5 C    0.968
    19   1 H    0.999 --     6 C    0.971
    20   1 H    0.999 --     7 C    0.972
    21   1 H    0.999 --     8 C    0.971
    22   1 H    0.998 --     9 C    0.968
 ---------------------------------------------------------------------------

molecular dipole:
                 x           y           z       tot (Debye)
 q only:        1.911      -5.058       0.971
   full:        1.639      -4.384       0.847      12.090

           -------------------------------------------------
          | TOTAL ENERGY              -30.744123499007 Eh   |
          | GRADIENT NORM               0.000895383184 Eh/α |
          | HOMO-LUMO GAP               4.750578733771 eV   |
           -------------------------------------------------

 * finished run on 2023/01/24 at 15:49:26.864
