   * xtb version 6.5.1 (fef0646) compiled by 'conda@b96dff2e9fd6' on 2023-01-04
          program call               : xtb init.xyz --opt -c 0 -u 0 -P 16 --input xtb.inp

   ID    Z sym.   atoms
    1    7 N      1
    2    6 C      2-9
    3   17 Cl     10
    4    1 H      11-22

          :  Hamiltonian                  GFN2-xTB          :
 * total energy  :   -30.6810795 Eh     change       -0.5361436E-09 Eh
 * total energy  :   -30.6879072 Eh     change       -0.6827647E-02 Eh
 * total energy  :   -30.6926594 Eh     change       -0.4752237E-02 Eh
 * total energy  :   -30.6957304 Eh     change       -0.3070943E-02 Eh
 * total energy  :   -30.6986309 Eh     change       -0.2900537E-02 Eh
 * total energy  :   -30.7002872 Eh     change       -0.1656348E-02 Eh
 * total energy  :   -30.7009409 Eh     change       -0.6536759E-03 Eh
 * total energy  :   -30.7013737 Eh     change       -0.4327826E-03 Eh
 * total energy  :   -30.7015366 Eh     change       -0.1629042E-03 Eh
 * total energy  :   -30.7016193 Eh     change       -0.8270174E-04 Eh
 * total energy  :   -30.7021745 Eh     change       -0.5789763E-04 Eh
 * total energy  :   -30.7022109 Eh     change       -0.3634344E-04 Eh
 * total energy  :   -30.7022344 Eh     change       -0.2356267E-04 Eh
 * total energy  :   -30.7022593 Eh     change       -0.2488872E-04 Eh
 * total energy  :   -30.7022886 Eh     change       -0.2934285E-04 Eh
 * total energy  :   -30.7023013 Eh     change       -0.1269015E-04 Eh
 * total energy  :   -30.7023094 Eh     change       -0.8088477E-05 Eh
 * total energy  :   -30.7023186 Eh     change       -0.9205721E-05 Eh
 * total energy  :   -30.7023227 Eh     change       -0.4026182E-05 Eh
   *** GEOMETRY OPTIMIZATION CONVERGED AFTER 23 ITERATIONS ***

 final structure:
================
22
 xtb: 6.5.1 (fef0646)
N            1.07740736792809       -0.19725063735377        0.23909108579777
C            2.53651618649741       -0.11515762535032        0.19883747168949
C            3.01903702338454       -0.04145231591106       -1.25253537255552
C            4.50429498910963        0.18409226473436       -1.29178734236848
C            5.38671624562915       -0.88801157606111       -1.28072448244373
C            6.75425063594208       -0.67587168557247       -1.27602239691636
C            7.25594175532062        0.61413718875166       -1.28058555309579
C            6.38378068335982        1.68950362813599       -1.29090346618575
C            5.01710958302657        1.47479189940692       -1.29420134860543
Cl          -0.03957351197411        2.22814232160148       -0.97675195945772
H            0.73760131655524       -0.24346208269376        1.19320711830642
H            0.74701563668060       -1.01273178838049       -0.26734930133910
H            0.47946889740930        1.08814857602827       -0.41714534706580
H            3.01664312853675       -0.96747689374559        0.70047140351516
H            2.82982991946114        0.79647118655237        0.72438287692208
H            2.49864949032335        0.77874127805919       -1.74746531516998
H            2.76626841458555       -0.97276846470446       -1.76479193481471
H            5.00057489993822       -1.89810620635435       -1.28139349149088
H            7.42963305141726       -1.51906738534095       -1.26980068224088
H            8.32307224155065        0.78085888369536       -1.27822001303757
H            6.77019547071729        2.69850952792485       -1.29735507218881
H            4.33786657459890        2.31487990657723       -1.30432687725432

          :  Hamiltonian                  GFN2-xTB          :
         :: total energy             -30.702322657406 Eh    ::
         :: gradient norm              0.000651158044 Eh/a0 ::
         :: HOMO-LUMO gap              4.634333296477 eV    ::
         :: SCC energy               -31.144804763271 Eh    ::
         :: -> dispersion             -0.017371227362 Eh    ::
         :: repulsion energy           0.442461756922 Eh    ::

    * Orbital Energies and Occupations

         #    Occupation            Energy/Eh            Energy/eV
      -------------------------------------------------------------
         1        2.0000           -1.0183244             -27.7100
       ...           ...                  ...                  ...
        16        2.0000           -0.4877818             -13.2732
        17        2.0000           -0.4834913             -13.1565
        18        2.0000           -0.4789294             -13.0323
        19        2.0000           -0.4732360             -12.8774
        20        2.0000           -0.4666522             -12.6983
        21        2.0000           -0.4535822             -12.3426
        22        2.0000           -0.4268139             -11.6142
        23        2.0000           -0.4227855             -11.5046
        24        2.0000           -0.4060500             -11.0492
        25        2.0000           -0.4027481             -10.9593
        26        2.0000           -0.3981332             -10.8338
        27        2.0000           -0.3953206             -10.7572
        28        2.0000           -0.3951083             -10.7514 (HOMO)
        29                         -0.2247997              -6.1171 (LUMO)
        30                         -0.2242012              -6.1008
        31                         -0.0962490              -2.6191
        32                         -0.0573640              -1.5610
        33                          0.0157941               0.4298
        34                          0.0657288               1.7886
        35                          0.0661848               1.8010
        36                          0.0717247               1.9517
        37                          0.0719235               1.9571
        38                          0.0926217               2.5204
        39                          0.1010150               2.7488
       ...                                ...                  ...
        57                          0.6625954              18.0301
      -------------------------------------------------------------
                  HL-Gap            0.1703086 Eh            4.6343 eV

     #   Z          covCN         q      C6AA      α(0)
     1   7 N        2.693    -0.305    27.853     7.838
     2   6 C        3.734     0.012    20.459     6.456
     3   6 C        3.809    -0.078    21.989     6.675
     4   6 C        2.972     0.012    27.746     8.640
     5   6 C        2.925    -0.039    28.972     8.827
     6   6 C        2.919    -0.031    28.762     8.795
     7   6 C        2.920    -0.032    28.806     8.801
     8   6 C        2.919    -0.029    28.731     8.790
     9   6 C        2.925    -0.038    28.954     8.824
    10  17 Cl       0.837    -0.485   115.145    16.416
    11   1 H        0.860     0.166     1.297     1.784
    12   1 H        0.860     0.167     1.289     1.778
    13   1 H        0.899     0.333     0.621     1.233
    14   1 H        0.923     0.025     2.654     2.548
    15   1 H        0.924     0.054     2.275     2.359
    16   1 H        0.925     0.068     2.108     2.271
    17   1 H        0.924     0.042     2.423     2.434
    18   1 H        0.925     0.027     2.625     2.534
    19   1 H        0.926     0.030     2.583     2.514
    20   1 H        0.926     0.031     2.577     2.510
    21   1 H        0.926     0.033     2.549     2.497
    22   1 H        0.926     0.039     2.467     2.456

Wiberg/Mayer (AO) data.
largest (>0.10) Wiberg bond orders for each atom

     #   Z sym  total        # sym  WBO       # sym  WBO       # sym  WBO
 ---------------------------------------------------------------------------
     1   7 N    3.237 --     2 C    1.005    11 H    0.958    12 H    0.958
                            13 H    0.205
     2   6 C    3.974 --     1 N    1.005     3 C    0.990    15 H    0.974
                            14 H    0.973
     3   6 C    3.993 --     4 C    1.008     2 C    0.990    17 H    0.972
                            16 H    0.968
     4   6 C    3.989 --     5 C    1.415     9 C    1.412     3 C    1.008
                             7 C    0.110
     5   6 C    3.992 --     6 C    1.444     4 C    1.415    18 H    0.970
                             8 C    0.111
     6   6 C    3.993 --     5 C    1.444     7 C    1.440    19 H    0.971
                             9 C    0.112
     7   6 C    3.992 --     6 C    1.440     8 C    1.437    20 H    0.972
                             4 C    0.110
     8   6 C    3.992 --     9 C    1.447     7 C    1.437    21 H    0.971
                             5 C    0.111
     9   6 C    3.992 --     8 C    1.447     4 C    1.412    22 H    0.969
                             6 C    0.112
    10  17 Cl   0.767 --    13 H    0.680
    11   1 H    0.972 --     1 N    0.958
    12   1 H    0.972 --     1 N    0.958
    13   1 H    0.889 --    10 Cl   0.680     1 N    0.205
    14   1 H    0.999 --     2 C    0.973
    15   1 H    0.997 --     2 C    0.974
    16   1 H    0.995 --     3 C    0.968
    17   1 H    0.998 --     3 C    0.972
    18   1 H    0.999 --     5 C    0.970
    19   1 H    0.999 --     6 C    0.971
    20   1 H    0.999 --     7 C    0.972
    21   1 H    0.999 --     8 C    0.971
    22   1 H    0.999 --     9 C    0.969
 ---------------------------------------------------------------------------

molecular dipole:
                 x           y           z       tot (Debye)
 q only:        0.819      -1.514       0.713
   full:        0.634      -1.483       0.754       4.525

           -------------------------------------------------
          | TOTAL ENERGY              -30.702322657406 Eh   |
          | GRADIENT NORM               0.000651158044 Eh/α |
          | HOMO-LUMO GAP               4.634333296477 eV   |
           -------------------------------------------------

 * finished run on 2023/01/23 at 19:42:00.719
