   * xtb version 6.5.1 (fef0646) compiled by 'conda@b96dff2e9fd6' on 2023-01-04
          program call               : xtb init.xyz --opt -c 1 -u 0 -P 16 --input xtb.inp

   ID    Z sym.   atoms
    1    7 N      1, 5
    2    6 C      2-4
    3    1 H      6-12

          :  Hamiltonian                  GFN2-xTB          :
 * total energy  :   -15.3067132 Eh     change       -0.1056421E-08 Eh
 * total energy  :   -15.3377955 Eh     change       -0.3108229E-01 Eh
 * total energy  :   -15.3388968 Eh     change       -0.1101311E-02 Eh
 * total energy  :   -15.3390493 Eh     change       -0.1524687E-03 Eh
 * total energy  :   -15.3390223 Eh     change        0.2697007E-04 Eh
 * total energy  :   -15.3393193 Eh     change       -0.2969464E-03 Eh
 * total energy  :   -15.3393925 Eh     change       -0.7321983E-04 Eh
 * total energy  :   -15.3394689 Eh     change       -0.7644419E-04 Eh
 * total energy  :   -15.3395085 Eh     change       -0.3955471E-04 Eh
 * total energy  :   -15.3395284 Eh     change       -0.1990548E-04 Eh
 * total energy  :   -15.3395311 Eh     change       -0.2681192E-05 Eh
 * total energy  :   -15.3395355 Eh     change       -0.4384156E-05 Eh
 * total energy  :   -15.3395367 Eh     change       -0.1287266E-05 Eh
   *** GEOMETRY OPTIMIZATION CONVERGED AFTER 13 ITERATIONS ***

 final structure:
================
12
 xtb: 6.5.1 (fef0646)
N            1.02820853961058       -0.01508016019993       -0.04101274340154
C            2.52148384632826        0.06379905580788       -0.07548756693125
C            3.04031570159214       -0.49095804723611       -1.40371958634733
C            2.45661552633826       -1.79777083565661       -1.62354148519530
N            1.89359646710472       -2.78627716312864       -1.71764318665879
H            0.65654645738681        0.25159819501108        0.87987569657804
H            0.74264527824663       -0.98824447424323       -0.25103320008870
H            0.60948499921907        0.59784988988105       -0.75442956513320
H            2.91151566267477       -0.52953892601859        0.75454022314370
H            2.83148782400841        1.10171203719608        0.05455439501471
H            4.12824658465177       -0.58092392796702       -1.37153007210777
H            2.78311311283853        0.15891435655401       -2.24473290887261

          :  Hamiltonian                  GFN2-xTB          :
         :: total energy             -15.339536739416 Eh    ::
         :: gradient norm              0.000611627327 Eh/a0 ::
         :: HOMO-LUMO gap              5.626904432745 eV    ::
         :: SCC energy               -15.602483255573 Eh    ::
         :: -> dispersion             -0.005053763599 Eh    ::
         :: repulsion energy           0.262940642682 Eh    ::

    * Orbital Energies and Occupations

         #    Occupation            Energy/Eh            Energy/eV
      -------------------------------------------------------------
         1        2.0000           -0.9175095             -24.9667
         2        2.0000           -0.8673807             -23.6026
         3        2.0000           -0.8338063             -22.6890
         4        2.0000           -0.8215481             -22.3555
         5        2.0000           -0.8102454             -22.0479
         6        2.0000           -0.8043243             -21.8868
         7        2.0000           -0.7682594             -20.9054
         8        2.0000           -0.7264731             -19.7683
         9        2.0000           -0.7008915             -19.0722
        10        2.0000           -0.6944647             -18.8973
        11        2.0000           -0.6730372             -18.3143
        12        2.0000           -0.6405659             -17.4307
        13        2.0000           -0.6288757             -17.1126
        14        2.0000           -0.5841105             -15.8945 (HOMO)
        15                         -0.3773255             -10.2676 (LUMO)
        16                         -0.3668733              -9.9831
        17                         -0.2827726              -7.6946
        18                         -0.1756880              -4.7807
        19                         -0.1216789              -3.3111
        20                         -0.1185034              -3.2246
        21                         -0.0822739              -2.2388
        22                         -0.0495643              -1.3487
        23                         -0.0302057              -0.8219
        24                         -0.0089736              -0.2442
        25                          0.0437854               1.1915
       ...                                ...                  ...
        27                          0.9767640              26.5791
      -------------------------------------------------------------
                  HL-Gap            0.2067849 Eh            5.6269 eV

     #   Z          covCN         q      C6AA      α(0)
     1   7 N        3.482    -0.129    23.792     7.244
     2   6 C        3.740    -0.026    21.113     6.556
     3   6 C        3.804    -0.078    21.982     6.675
     4   6 C        1.902     0.104    28.531     8.627
     5   7 N        0.911    -0.180    24.900     7.217
     6   1 H        0.859     0.277     0.786     1.389
     7   1 H        0.858     0.283     0.766     1.371
     8   1 H        0.859     0.275     0.791     1.393
     9   1 H        0.924     0.119     1.625     1.993
    10   1 H        0.924     0.118     1.630     1.997
    11   1 H        0.924     0.130     1.533     1.936
    12   1 H        0.924     0.106     1.728     2.056

Wiberg/Mayer (AO) data.
largest (>0.10) Wiberg bond orders for each atom

     #   Z sym  total        # sym  WBO       # sym  WBO       # sym  WBO
 ---------------------------------------------------------------------------
     1   7 N    3.674 --     2 C    0.936     6 H    0.909     8 H    0.909
                             7 H    0.893
     2   6 C    3.899 --     3 C    0.992     9 H    0.965    10 H    0.965
                             1 N    0.936
     3   6 C    3.982 --     4 C    1.042     2 C    0.992    12 H    0.941
                            11 H    0.931
     4   6 C    3.953 --     5 N    2.869     3 C    1.042
     5   7 N    3.028 --     4 C    2.869
     6   1 H    0.923 --     1 N    0.909
     7   1 H    0.920 --     1 N    0.893
     8   1 H    0.924 --     1 N    0.909
     9   1 H    0.986 --     2 C    0.965
    10   1 H    0.986 --     2 C    0.965
    11   1 H    0.983 --     3 C    0.931
    12   1 H    0.989 --     3 C    0.941
 ---------------------------------------------------------------------------

molecular dipole:
                 x           y           z       tot (Debye)
 q only:        2.935       0.597      -0.189
   full:        2.969       1.012      -0.126       7.980

           -------------------------------------------------
          | TOTAL ENERGY              -15.339536739416 Eh   |
          | GRADIENT NORM               0.000611627327 Eh/α |
          | HOMO-LUMO GAP               5.626904432745 eV   |
           -------------------------------------------------

 * finished run on 2023/01/23 at 19:00:59.730
