   * xtb version 6.5.1 (fef0646) compiled by 'conda@b96dff2e9fd6' on 2023-01-04
          program call               : xtb init.xyz --opt -c 1 -u 0 -P 16 --alpb water

   ID    Z sym.   atoms
    1    7 N      1, 5
    2    6 C      2-4
    3    1 H      6-12

      * Solvation model:               ALPB
        Solvent                        water
        Solvent mass                       1.8000E+01 g/mol
          :  Hamiltonian                  GFN2-xTB          :
 * total energy  :   -15.4345962 Eh     change       -0.2876579E-09 Eh
 * total energy  :   -15.4642855 Eh     change       -0.2968929E-01 Eh
 * total energy  :   -15.4652475 Eh     change       -0.9619646E-03 Eh
 * total energy  :   -15.4645833 Eh     change        0.6642027E-03 Eh
 * total energy  :   -15.4655155 Eh     change       -0.9322149E-03 Eh
 * total energy  :   -15.4655373 Eh     change       -0.2181530E-04 Eh
 * total energy  :   -15.4655496 Eh     change       -0.1228495E-04 Eh
 * total energy  :   -15.4655744 Eh     change       -0.2479898E-04 Eh
 * total energy  :   -15.4655866 Eh     change       -0.1218631E-04 Eh
 * total energy  :   -15.4655926 Eh     change       -0.6013850E-05 Eh
 * total energy  :   -15.4655938 Eh     change       -0.1189639E-05 Eh
   *** GEOMETRY OPTIMIZATION CONVERGED AFTER 11 ITERATIONS ***

 final structure:
================
12
 xtb: 6.5.1 (fef0646)
N            1.01511596120267       -0.00021785825594        0.05788229408537
C            2.49386279731332       -0.09241814499011        0.00800568106279
C            2.98201504516026       -0.36470316050198       -1.41719834921896
C            2.59591198832388       -1.67240258205571       -1.88279039992711
N            2.26411786397901       -2.71041221994295       -2.23353348731348
H            0.70007344470486        0.18281932280058        1.01872289281244
H            0.58605603734773       -0.87834957117674       -0.26029269531358
H            0.67603835795815        0.76034833499228       -0.54521194799831
H            2.82639422695691       -0.89227797602864        0.67076069707465
H            2.92204505429753        0.84957183015320        0.35075471301813
H            4.07259482361108       -0.31460401501523       -1.44524645562579
H            2.59669439914463        0.37785604002126       -2.12012294265616

          :  Hamiltonian                  GFN2-xTB          :
         :: total energy             -15.465593805574 Eh    ::
         :: gradient norm              0.000256204935 Eh/a0 ::
         :: HOMO-LUMO gap              5.721042635002 eV    ::
         :: SCC energy               -15.729877764750 Eh    ::
         :: -> dispersion             -0.004911900762 Eh    ::
         :: -> Gsolv                  -0.135229835696 Eh    ::
         :: repulsion energy           0.264277633774 Eh    ::

    * Orbital Energies and Occupations

         #    Occupation            Energy/Eh            Energy/eV
      -------------------------------------------------------------
         1        2.0000           -0.7069035             -19.2358
         2        2.0000           -0.6675374             -18.1646
         3        2.0000           -0.6576100             -17.8945
         4        2.0000           -0.6350372             -17.2802
         5        2.0000           -0.6020178             -16.3817
         6        2.0000           -0.5950842             -16.1931
         7        2.0000           -0.5772011             -15.7064
         8        2.0000           -0.5473722             -14.8948
         9        2.0000           -0.5253669             -14.2960
        10        2.0000           -0.5150282             -14.0146
        11        2.0000           -0.4873342             -13.2610
        12        2.0000           -0.4769086             -12.9773
        13        2.0000           -0.4667544             -12.7010
        14        2.0000           -0.4327940             -11.7769 (HOMO)
        15                         -0.2225496              -6.0559 (LUMO)
        16                         -0.2143920              -5.8339
        17                         -0.0583784              -1.5886
        18                          0.0519633               1.4140
        19                          0.0741017               2.0164
        20                          0.0949521               2.5838
        21                          0.1148179               3.1244
        22                          0.1413463               3.8462
        23                          0.1697442               4.6190
        24                          0.1940183               5.2795
        25                          0.2317831               6.3071
       ...                                ...                  ...
        27                          1.1233695              30.5684
      -------------------------------------------------------------
                  HL-Gap            0.2102444 Eh            5.7210 eV

     #   Z          covCN         q      C6AA      α(0)
     1   7 N        3.484    -0.155    24.348     7.329
     2   6 C        3.735    -0.032    21.230     6.576
     3   6 C        3.804    -0.087    22.160     6.702
     4   6 C        1.896     0.124    28.061     8.555
     5   7 N        0.911    -0.292    27.535     7.589
     6   1 H        0.859     0.323     0.648     1.261
     7   1 H        0.859     0.300     0.715     1.324
     8   1 H        0.859     0.315     0.671     1.283
     9   1 H        0.924     0.120     1.617     1.989
    10   1 H        0.925     0.133     1.516     1.925
    11   1 H        0.924     0.126     1.566     1.957
    12   1 H        0.924     0.127     1.558     1.952

Wiberg/Mayer (AO) data.
largest (>0.10) Wiberg bond orders for each atom

     #   Z sym  total        # sym  WBO       # sym  WBO       # sym  WBO
 ---------------------------------------------------------------------------
     1   7 N    3.654 --     2 C    0.972     7 H    0.894     8 H    0.886
                             6 H    0.882
     2   6 C    3.926 --     3 C    0.987     1 N    0.972     9 H    0.964
                            10 H    0.960
     3   6 C    3.984 --     4 C    1.060     2 C    0.987    12 H    0.929
                            11 H    0.924
     4   6 C    3.939 --     5 N    2.835     3 C    1.060
     5   7 N    3.000 --     4 C    2.835
     6   1 H    0.896 --     1 N    0.882
     7   1 H    0.910 --     1 N    0.894
     8   1 H    0.901 --     1 N    0.886
     9   1 H    0.986 --     2 C    0.964
    10   1 H    0.982 --     2 C    0.960
    11   1 H    0.984 --     3 C    0.924
    12   1 H    0.984 --     3 C    0.929
 ---------------------------------------------------------------------------

molecular dipole:
                 x           y           z       tot (Debye)
 q only:        2.543       1.264       0.546
   full:        2.572       1.565       0.603       7.805

           -------------------------------------------------
          | TOTAL ENERGY              -15.465593805574 Eh   |
          | GRADIENT NORM               0.000256204935 Eh/α |
          | HOMO-LUMO GAP               5.721042635002 eV   |
           -------------------------------------------------

 * finished run on 2023/01/24 at 15:23:19.766
