   * xtb version 6.5.1 (fef0646) compiled by 'conda@b96dff2e9fd6' on 2023-01-04
          program call               : xtb init.xyz --opt -c 1 -u 0 -P 16

   ID    Z sym.   atoms
    1    7 N      1
    2    6 C      2, 3
    3    1 H      4-11

          :  Hamiltonian                  GFN2-xTB          :
 * total energy  :   -10.8377622 Eh     change       -0.1980283E-10 Eh
 * total energy  :   -10.8383984 Eh     change       -0.6362110E-03 Eh
 * total energy  :   -10.8384717 Eh     change       -0.7332505E-04 Eh
 * total energy  :   -10.8384828 Eh     change       -0.1108322E-04 Eh
 * total energy  :   -10.8384839 Eh     change       -0.1172563E-05 Eh
   *** GEOMETRY OPTIMIZATION CONVERGED AFTER 5 ITERATIONS ***

 final structure:
================
11
 xtb: 6.5.1 (fef0646)
N            0.91192524231461       -0.05423327650581       -0.01218569615273
C            2.41153029698038       -0.05958021417566       -0.03328371167178
C            2.90247767935084       -0.41153818181973       -1.42218101607418
H            0.54644547684167        0.18170208380668        0.91886234225072
H            0.55829802474921       -0.98183031728538       -0.28370754208992
H            0.55829862436242        0.63211158445756       -0.69269394448448
H            2.76139882317669       -0.78932472170312        0.69781717085560
H            2.76139943126145        0.93027272717527        0.26205730058395
H            2.56855953028440       -1.40163635755596       -1.72223606159219
H            3.98844626370883       -0.41382057898145       -1.43118505831555
H            2.56856060696948        0.31617725258759       -2.15754378330945

          :  Hamiltonian                  GFN2-xTB          :
         :: total energy             -10.838483949272 Eh    ::
         :: gradient norm              0.000278769833 Eh/a0 ::
         :: HOMO-LUMO gap              9.679788812938 eV    ::
         :: SCC energy               -10.995636579494 Eh    ::
         :: -> dispersion             -0.003048218767 Eh    ::
         :: repulsion energy           0.157151344981 Eh    ::

    * Orbital Energies and Occupations

         #    Occupation            Energy/Eh            Energy/eV
      -------------------------------------------------------------
         1        2.0000           -0.9033664             -24.5818
         2        2.0000           -0.8497116             -23.1218
         3        2.0000           -0.8132137             -22.1287
         4        2.0000           -0.8084074             -21.9979
         5        2.0000           -0.7761619             -21.1204
         6        2.0000           -0.7363003             -20.0358
         7        2.0000           -0.6936570             -18.8754
         8        2.0000           -0.6631204             -18.0444
         9        2.0000           -0.6371790             -17.3385
        10        2.0000           -0.6266982             -17.0533 (HOMO)
        11                         -0.2709725              -7.3735 (LUMO)
        12                         -0.1663040              -4.5254
        13                         -0.1074007              -2.9225
        14                         -0.1049478              -2.8558
        15                         -0.0621983              -1.6925
        16                         -0.0046581              -0.1268
        17                         -0.0043471              -0.1183
        18                          0.0269921               0.7345
        19                          0.0723028               1.9675
        20                          0.1003917               2.7318
      -------------------------------------------------------------
                  HL-Gap            0.3557257 Eh            9.6798 eV

     #   Z          covCN         q      C6AA      α(0)
     1   7 N        3.483    -0.128    23.759     7.240
     2   6 C        3.729    -0.027    21.157     6.566
     3   6 C        3.753    -0.144    23.344     6.890
     4   1 H        0.859     0.270     0.810     1.409
     5   1 H        0.859     0.274     0.795     1.397
     6   1 H        0.859     0.274     0.795     1.397
     7   1 H        0.924     0.110     1.695     2.036
     8   1 H        0.924     0.110     1.695     2.036
     9   1 H        0.925     0.077     2.007     2.215
    10   1 H        0.925     0.105     1.737     2.061
    11   1 H        0.925     0.077     2.007     2.215

Wiberg/Mayer (AO) data.
largest (>0.10) Wiberg bond orders for each atom

     #   Z sym  total        # sym  WBO       # sym  WBO       # sym  WBO
 ---------------------------------------------------------------------------
     1   7 N    3.675 --     2 C    0.921     4 H    0.913     5 H    0.909
                             6 H    0.909
     2   6 C    3.890 --     3 C    1.027     7 H    0.967     8 H    0.967
                             1 N    0.921
     3   6 C    3.974 --     2 C    1.027    11 H    0.980     9 H    0.980
                            10 H    0.968
     4   1 H    0.927 --     1 N    0.913
     5   1 H    0.925 --     1 N    0.909
     6   1 H    0.925 --     1 N    0.909
     7   1 H    0.988 --     2 C    0.967
     8   1 H    0.988 --     2 C    0.967
     9   1 H    0.994 --     3 C    0.980
    10   1 H    0.989 --     3 C    0.968
    11   1 H    0.994 --     3 C    0.980
 ---------------------------------------------------------------------------

molecular dipole:
                 x           y           z       tot (Debye)
 q only:        2.417      -0.172      -0.297
   full:        2.169      -0.154      -0.227       5.556

           -------------------------------------------------
          | TOTAL ENERGY              -10.838483949272 Eh   |
          | GRADIENT NORM               0.000278769833 Eh/α |
          | HOMO-LUMO GAP               9.679788812938 eV   |
           -------------------------------------------------

 * finished run on 2023/01/23 at 13:44:37.654
