   * xtb version 6.5.1 (fef0646) compiled by 'conda@b96dff2e9fd6' on 2023-01-04
          program call               : xtb init.xyz --opt -c 0 -u 0 -P 16 --input xtb.inp

   ID    Z sym.   atoms
    1    7 N      1
    2    6 C      2-7
    3   17 Cl     8
    4    1 H      9-22

          :  Hamiltonian                  GFN2-xTB          :
 * total energy  :   -27.3900409 Eh     change       -0.1532072E-09 Eh
 * total energy  :   -27.3996507 Eh     change       -0.9609779E-02 Eh
 * total energy  :   -27.4088729 Eh     change       -0.9222191E-02 Eh
 * total energy  :   -27.4095050 Eh     change       -0.6321319E-03 Eh
 * total energy  :   -27.4102751 Eh     change       -0.7700414E-03 Eh
 * total energy  :   -27.4104897 Eh     change       -0.2146230E-03 Eh
 * total energy  :   -27.4106052 Eh     change       -0.1154814E-03 Eh
 * total energy  :   -27.4106748 Eh     change       -0.6967853E-04 Eh
 * total energy  :   -27.4107549 Eh     change       -0.8000876E-04 Eh
 * total energy  :   -27.4109052 Eh     change       -0.1503839E-03 Eh
 * total energy  :   -27.4778956 Eh     change       -0.1930712E-03 Eh
 * total energy  :   -27.4778153 Eh     change        0.8026111E-04 Eh
 * total energy  :   -27.4780153 Eh     change       -0.1999732E-03 Eh
 * total energy  :   -27.4780200 Eh     change       -0.4719008E-05 Eh
 * total energy  :   -27.4780832 Eh     change       -0.6317517E-04 Eh
 * total energy  :   -27.4781133 Eh     change       -0.3007988E-04 Eh
 * total energy  :   -27.4781319 Eh     change       -0.1859146E-04 Eh
 * total energy  :   -27.4781493 Eh     change       -0.1744235E-04 Eh
 * total energy  :   -27.4781522 Eh     change       -0.2865496E-05 Eh
   *** GEOMETRY OPTIMIZATION CONVERGED AFTER 60 ITERATIONS ***

 final structure:
================
22
 xtb: 6.5.1 (fef0646)
N           -1.74858139511440       -0.12230955046919       -0.02057585636231
C           -0.53894713071047       -0.23081129929880       -0.83953117820966
C            0.26131878229546        1.07065109225015       -0.75231197756439
C            0.92225686784554        1.25079194975104        0.61211402511806
C            1.80299116714391        0.05104050438623        0.94852502368360
C            0.98785619765491       -1.23817300324186        0.91780648908634
C            0.34084817900394       -1.42794921411047       -0.45237324916776
Cl          -3.39280255103951        2.13476612144729       -0.82751054158243
H           -2.59135743953736        1.05968724914065       -0.44655091808426
H           -1.50883877547238        0.01950771951400        0.95434141532325
H           -2.31941866089001       -0.95586604993052       -0.10099595181112
H           -0.88272564084490       -0.36293175159660       -1.87202674600206
H           -0.40406763105773        1.90837365380837       -0.95931911236752
H            1.03370740287683        1.05034323983672       -1.52273263698885
H            0.16016270209709        1.37845394843470        1.38375866190311
H            1.52504733718910        2.16017115473033        0.60105544265364
H            2.25294533715411        0.18234354810149        1.93441607065310
H            2.61197091236536       -0.01880063627835        0.21810069139394
H            0.22076502590798       -1.20461621487057        1.69620805036470
H            1.63203428867284       -2.09222300173125        1.13565544409723
H           -0.25762807905993       -2.34294850493478       -0.46123206752683
H            1.12399310350483       -1.53819095494914       -1.20442107861331

          :  Hamiltonian                  GFN2-xTB          :
         :: total energy             -27.478152173465 Eh    ::
         :: gradient norm              0.000944024651 Eh/a0 ::
         :: HOMO-LUMO gap              9.132361034691 eV    ::
         :: SCC energy               -27.791278282037 Eh    ::
         :: -> dispersion             -0.016168599833 Eh    ::
         :: repulsion energy           0.313036094476 Eh    ::

    * Orbital Energies and Occupations

         #    Occupation            Energy/Eh            Energy/eV
      -------------------------------------------------------------
         1        2.0000           -1.0114068             -27.5218
       ...           ...                  ...                  ...
        13        2.0000           -0.5046674             -13.7327
        14        2.0000           -0.5029416             -13.6857
        15        2.0000           -0.4818767             -13.1125
        16        2.0000           -0.4795133             -13.0482
        17        2.0000           -0.4754868             -12.9387
        18        2.0000           -0.4707510             -12.8098
        19        2.0000           -0.4527704             -12.3205
        20        2.0000           -0.4352171             -11.8429
        21        2.0000           -0.4315330             -11.7426
        22        2.0000           -0.4282388             -11.6530
        23        2.0000           -0.3935391             -10.7087
        24        2.0000           -0.3884329             -10.5698
        25        2.0000           -0.3883816             -10.5684 (HOMO)
        26                         -0.0527735              -1.4360 (LUMO)
        27                          0.0208630               0.5677
        28                          0.0609551               1.6587
        29                          0.0732238               1.9925
        30                          0.0740893               2.0161
        31                          0.0752490               2.0476
        32                          0.0771293               2.0988
        33                          0.0804648               2.1896
        34                          0.0805780               2.1926
        35                          0.0891351               2.4255
        36                          0.0922627               2.5106
       ...                                ...                  ...
        51                          0.3004273               8.1750
      -------------------------------------------------------------
                  HL-Gap            0.3356081 Eh            9.1324 eV

     #   Z          covCN         q      C6AA      α(0)
     1   7 N        2.753    -0.301    27.746     7.823
     2   6 C        3.783     0.043    19.866     6.349
     3   6 C        3.808    -0.076    21.939     6.668
     4   6 C        3.804    -0.058    21.610     6.618
     5   6 C        3.805    -0.059    21.630     6.621
     6   6 C        3.804    -0.054    21.541     6.608
     7   6 C        3.805    -0.068    21.805     6.648
     8  17 Cl       0.834    -0.509   116.014    16.477
     9   1 H        0.954     0.327     0.632     1.242
    10   1 H        0.860     0.177     1.232     1.739
    11   1 H        0.860     0.166     1.296     1.784
    12   1 H        0.924     0.043     2.413     2.429
    13   1 H        0.925     0.062     2.180     2.309
    14   1 H        0.924     0.044     2.390     2.418
    15   1 H        0.924     0.034     2.530     2.488
    16   1 H        0.924     0.037     2.495     2.470
    17   1 H        0.924     0.030     2.581     2.512
    18   1 H        0.924     0.035     2.511     2.478
    19   1 H        0.924     0.027     2.634     2.538
    20   1 H        0.924     0.031     2.571     2.508
    21   1 H        0.924     0.028     2.622     2.532
    22   1 H        0.924     0.041     2.433     2.439

Wiberg/Mayer (AO) data.
largest (>0.10) Wiberg bond orders for each atom

     #   Z sym  total        # sym  WBO       # sym  WBO       # sym  WBO
 ---------------------------------------------------------------------------
     1   7 N    3.282 --     2 C    0.993    11 H    0.957    10 H    0.946
                             9 H    0.243
     2   6 C    3.972 --     3 C    0.995     1 N    0.993     7 C    0.989
                            12 H    0.966
     3   6 C    3.994 --     4 C    1.009     2 C    0.995    14 H    0.975
                            13 H    0.972
     4   6 C    3.998 --     5 C    1.009     3 C    1.009    16 H    0.976
                            15 H    0.974
     5   6 C    3.998 --     4 C    1.009     6 C    1.009    17 H    0.977
                            18 H    0.977
     6   6 C    3.998 --     5 C    1.009     7 C    1.009    20 H    0.977
                            19 H    0.975
     7   6 C    3.997 --     6 C    1.009     2 C    0.989    21 H    0.976
                            22 H    0.975
     8  17 Cl   0.743 --     9 H    0.644
     9   1 H    0.893 --     8 Cl   0.644     1 N    0.243
    10   1 H    0.969 --     1 N    0.946
    11   1 H    0.972 --     1 N    0.957
    12   1 H    0.998 --     2 C    0.966
    13   1 H    0.996 --     3 C    0.972
    14   1 H    0.998 --     3 C    0.975
    15   1 H    0.999 --     4 C    0.974
    16   1 H    0.999 --     4 C    0.976
    17   1 H    0.999 --     5 C    0.977
    18   1 H    0.999 --     5 C    0.977
    19   1 H    0.999 --     6 C    0.975
    20   1 H    0.999 --     6 C    0.977
    21   1 H    0.999 --     7 C    0.976
    22   1 H    0.998 --     7 C    0.975
 ---------------------------------------------------------------------------

molecular dipole:
                 x           y           z       tot (Debye)
 q only:        1.467      -1.524       0.551
   full:        1.260      -1.497       0.578       5.186

           -------------------------------------------------
          | TOTAL ENERGY              -27.478152173465 Eh   |
          | GRADIENT NORM               0.000944024651 Eh/α |
          | HOMO-LUMO GAP               9.132361034691 eV   |
           -------------------------------------------------

 * finished run on 2023/01/23 at 18:44:03.810
