   * xtb version 6.5.1 (fef0646) compiled by 'conda@b96dff2e9fd6' on 2023-01-04
          program call               : xtb init.xyz --opt -c 1 -u 0 -P 16 --alpb water

   ID    Z sym.   atoms
    1    7 N      1
    2    6 C      2-5
    3    8 O      6, 7
    4    1 H      8-17

      * Solvation model:               ALPB
        Solvent                        water
        Solvent mass                       1.8000E+01 g/mol
          :  Hamiltonian                  GFN2-xTB          :
 * total energy  :   -24.4028648 Eh     change       -0.4842704E-10 Eh
 * total energy  :   -24.4047945 Eh     change       -0.1929629E-02 Eh
 * total energy  :   -24.4050682 Eh     change       -0.2737124E-03 Eh
 * total energy  :   -24.4050862 Eh     change       -0.1807050E-04 Eh
 * total energy  :   -24.4050888 Eh     change       -0.2567886E-05 Eh
   *** GEOMETRY OPTIMIZATION CONVERGED AFTER 5 ITERATIONS ***

 final structure:
================
17
 xtb: 6.5.1 (fef0646)
N            1.02856544514889        0.06413196793964       -0.02096273799348
C            2.50977377728111        0.06583333082185       -0.04121483831859
C            3.01969971982249        0.40845813355195       -1.43739824875575
C            4.54736575222653        0.41696970103591       -1.47562560308813
C            5.05617682662030        0.75476679111124       -2.85732217577253
O            6.37979172981915        0.79080586766823       -3.00464923821150
O            4.33238625997266        0.98498302437935       -3.79913238383172
H            0.67602732759804       -0.16414146730436        0.91573674170667
H            0.66620345609126       -0.62737187674394       -0.68819470671830
H            0.66941868054863        0.98702353754113       -0.29323249027146
H            2.87136387346522       -0.91950558505574        0.25281344423346
H            2.87544783917300        0.80044127706747        0.67619089211707
H            2.66536237081838        1.39110215412810       -1.75124038224879
H            2.66410632996928       -0.31644100114986       -2.17069162454085
H            4.94280827042322       -0.56271758556114       -1.19841362638654
H            4.94406928291809        1.15699859701591       -0.77699581878593
H            6.87875305810373        0.59356313355426       -2.19137720313362

          :  Hamiltonian                  GFN2-xTB          :
         :: total energy             -24.405088804531 Eh    ::
         :: gradient norm              0.000811291665 Eh/a0 ::
         :: HOMO-LUMO gap              5.066115445857 eV    ::
         :: SCC energy               -24.671384819748 Eh    ::
         :: -> dispersion             -0.008139997003 Eh    ::
         :: -> Gsolv                  -0.143521206169 Eh    ::
         :: repulsion energy           0.266301598328 Eh    ::

    * Orbital Energies and Occupations

         #    Occupation            Energy/Eh            Energy/eV
      -------------------------------------------------------------
         1        2.0000           -0.7459095             -20.2972
       ...           ...                  ...                  ...
         9        2.0000           -0.5898080             -16.0495
        10        2.0000           -0.5824676             -15.8497
        11        2.0000           -0.5687500             -15.4765
        12        2.0000           -0.5533363             -15.0570
        13        2.0000           -0.5479755             -14.9112
        14        2.0000           -0.5232128             -14.2373
        15        2.0000           -0.5097421             -13.8708
        16        2.0000           -0.4831023             -13.1459
        17        2.0000           -0.4829603             -13.1420
        18        2.0000           -0.4756178             -12.9422
        19        2.0000           -0.4702332             -12.7957
        20        2.0000           -0.4443450             -12.0912
        21        2.0000           -0.4251119             -11.5679 (HOMO)
        22                         -0.2389356              -6.5018 (LUMO)
        23                         -0.0542055              -1.4750
        24                          0.0415020               1.1293
        25                          0.0645769               1.7572
        26                          0.0712419               1.9386
        27                          0.0989336               2.6921
        28                          0.1181110               3.2140
        29                          0.1334448               3.6312
        30                          0.1441705               3.9231
        31                          0.1607958               4.3755
        32                          0.1626790               4.4267
       ...                                ...                  ...
        38                          0.6001868              16.3319
      -------------------------------------------------------------
                  HL-Gap            0.1861763 Eh            5.0661 eV

     #   Z          covCN         q      C6AA      α(0)
     1   7 N        3.485    -0.161    24.480     7.349
     2   6 C        3.733    -0.041    21.405     6.604
     3   6 C        3.804    -0.082    22.057     6.686
     4   6 C        3.803    -0.120    22.786     6.796
     5   6 C        2.689     0.371    20.714     7.448
     6   8 O        1.659    -0.437    21.570     6.270
     7   8 O        0.856    -0.468    23.093     6.443
     8   1 H        0.859     0.320     0.657     1.270
     9   1 H        0.859     0.309     0.687     1.299
    10   1 H        0.859     0.309     0.687     1.298
    11   1 H        0.925     0.116     1.644     2.005
    12   1 H        0.925     0.116     1.645     2.006
    13   1 H        0.924     0.077     2.015     2.220
    14   1 H        0.924     0.077     2.015     2.220
    15   1 H        0.924     0.100     1.787     2.091
    16   1 H        0.924     0.100     1.788     2.091
    17   1 H        0.804     0.415     0.457     1.062

Wiberg/Mayer (AO) data.
largest (>0.10) Wiberg bond orders for each atom

     #   Z sym  total        # sym  WBO       # sym  WBO       # sym  WBO
 ---------------------------------------------------------------------------
     1   7 N    3.652 --     2 C    0.970     9 H    0.890    10 H    0.889
                             8 H    0.885
     2   6 C    3.926 --     3 C    1.011     1 N    0.970    12 H    0.964
                            11 H    0.964
     3   6 C    3.986 --     2 C    1.011     4 C    1.005    14 H    0.971
                            13 H    0.971
     4   6 C    3.989 --     3 C    1.005     5 C    0.983    16 H    0.945
                            15 H    0.945
     5   6 C    3.895 --     7 O    1.722     6 O    1.153     4 C    0.983
     6   8 O    2.167 --     5 C    1.153    17 H    0.806     7 O    0.157
     7   8 O    1.994 --     5 C    1.722     6 O    0.157
     8   1 H    0.897 --     1 N    0.885
     9   1 H    0.905 --     1 N    0.890
    10   1 H    0.904 --     1 N    0.889
    11   1 H    0.987 --     2 C    0.964
    12   1 H    0.987 --     2 C    0.964
    13   1 H    0.994 --     3 C    0.971
    14   1 H    0.994 --     3 C    0.971
    15   1 H    0.990 --     4 C    0.945
    16   1 H    0.990 --     4 C    0.945
    17   1 H    0.828 --     6 O    0.806
 ---------------------------------------------------------------------------

molecular dipole:
                 x           y           z       tot (Debye)
 q only:        2.924      -0.359       1.928
   full:        2.967      -0.395       2.078       9.261

           -------------------------------------------------
          | TOTAL ENERGY              -24.405088804531 Eh   |
          | GRADIENT NORM               0.000811291665 Eh/α |
          | HOMO-LUMO GAP               5.066115445857 eV   |
           -------------------------------------------------

 * finished run on 2023/01/24 at 14:57:47.294
