   * xtb version 6.5.1 (fef0646) compiled by 'conda@b96dff2e9fd6' on 2023-01-04
          program call               : xtb init.xyz --opt -c 0 -u 0 -P 16 --input xtb.inp

   ID    Z sym.   atoms
    1    7 N      1
    2    6 C      2-7
    3   16 S      8
    4   17 Cl     9
    5    1 H      10-19

          :  Hamiltonian                  GFN2-xTB          :
 * total energy  :   -28.6186110 Eh     change       -0.2227303E-09 Eh
 * total energy  :   -28.6260477 Eh     change       -0.7436671E-02 Eh
 * total energy  :   -28.6308255 Eh     change       -0.4777817E-02 Eh
 * total energy  :   -28.6338189 Eh     change       -0.2993390E-02 Eh
 * total energy  :   -28.6371242 Eh     change       -0.3305349E-02 Eh
 * total energy  :   -28.6389520 Eh     change       -0.1827744E-02 Eh
 * total energy  :   -28.6394037 Eh     change       -0.4517226E-03 Eh
 * total energy  :   -28.6396938 Eh     change       -0.2901416E-03 Eh
 * total energy  :   -28.6397557 Eh     change       -0.6189075E-04 Eh
 * total energy  :   -28.6398128 Eh     change       -0.5709733E-04 Eh
 * total energy  :   -28.6398594 Eh     change       -0.4652669E-04 Eh
 * total energy  :   -28.6398948 Eh     change       -0.3540378E-04 Eh
 * total energy  :   -28.6399321 Eh     change       -0.3732614E-04 Eh
 * total energy  :   -28.6399444 Eh     change       -0.1230109E-04 Eh
 * total energy  :   -28.6399685 Eh     change       -0.2408149E-04 Eh
 * total energy  :   -28.6399802 Eh     change       -0.1173430E-04 Eh
 * total energy  :   -28.6399975 Eh     change       -0.1727717E-04 Eh
 * total energy  :   -28.6400016 Eh     change       -0.4132627E-05 Eh
   *** GEOMETRY OPTIMIZATION CONVERGED AFTER 18 ITERATIONS ***

 final structure:
================
19
 xtb: 6.5.1 (fef0646)
N            1.10954796258735       -0.11656772564011       -0.33631305046538
C            2.56193854923645       -0.02837674883539       -0.40243708358466
C            3.14924336869583       -0.45999478459248       -1.75846891448695
C            4.63330111089132       -0.33452106333123       -1.76271076252548
C            5.56667318489908       -1.31074177637465       -1.60869288090465
C            6.89255051873789       -0.81909749285804       -1.61983228559921
C            6.94757775151426        0.52550592426098       -1.77658354991080
S            5.38207329136549        1.22278096777452       -1.91513031296248
Cl           0.12515917507212        0.68923386372269        2.32660257289537
H            0.58647065827157        0.32189842373367        1.10588133695966
H            0.79737578321829       -1.06757601006440       -0.50303295381826
H            0.68008040586255        0.48866322988528       -1.02851171165843
H            2.97273482677680       -0.65769775091985        0.38962148548915
H            2.84483456260867        1.00622133910679       -0.19756770632710
H            2.72182435839008        0.16698404473708       -2.54579141714744
H            2.87815662385509       -1.49979597988903       -1.95847173753681
H            5.32072050263653       -2.35173182705560       -1.49675114389181
H            7.76135647426115       -1.44374641241206       -1.51605890761600
H            7.80930089111922        1.16097977875165       -1.82103097690874

          :  Hamiltonian                  GFN2-xTB          :
         :: total energy             -28.640001610022 Eh    ::
         :: gradient norm              0.000723133639 Eh/a0 ::
         :: HOMO-LUMO gap              3.855810852860 eV    ::
         :: SCC energy               -28.983017587832 Eh    ::
         :: -> dispersion             -0.015001532428 Eh    ::
         :: repulsion energy           0.343035314928 Eh    ::

    * Orbital Energies and Occupations

         #    Occupation            Energy/Eh            Energy/eV
      -------------------------------------------------------------
         1        2.0000           -1.0206281             -27.7727
       ...           ...                  ...                  ...
        14        2.0000           -0.5144165             -13.9980
        15        2.0000           -0.4908986             -13.3580
        16        2.0000           -0.4797333             -13.0542
        17        2.0000           -0.4746775             -12.9166
        18        2.0000           -0.4741490             -12.9023
        19        2.0000           -0.4697372             -12.7822
        20        2.0000           -0.4555431             -12.3960
        21        2.0000           -0.4519371             -12.2978
        22        2.0000           -0.4104283             -11.1683
        23        2.0000           -0.4012828             -10.9195
        24        2.0000           -0.3976606             -10.8209
        25        2.0000           -0.3976265             -10.8200
        26        2.0000           -0.3902895             -10.6203 (HOMO)
        27                         -0.2485911              -6.7645 (LUMO)
        28                         -0.2070059              -5.6329
        29                         -0.1728914              -4.7046
        30                         -0.1223635              -3.3297
        31                         -0.0595844              -1.6214
        32                         -0.0109926              -0.2991
        33                          0.0165048               0.4491
        34                          0.0228089               0.6207
        35                          0.0288151               0.7841
        36                          0.0624614               1.6997
        37                          0.0624815               1.7002
       ...                                ...                  ...
        56                          0.6949100              18.9095
      -------------------------------------------------------------
                  HL-Gap            0.1416984 Eh            3.8558 eV

     #   Z          covCN         q      C6AA      α(0)
     1   7 N        2.666    -0.309    27.965     7.854
     2   6 C        3.733     0.003    20.621     6.481
     3   6 C        3.825    -0.068    21.782     6.641
     4   6 C        2.989     0.016    27.652     8.626
     5   6 C        3.122    -0.056    29.209     8.851
     6   6 C        3.117    -0.045    28.947     8.813
     7   6 C        2.940    -0.021    28.540     8.762
     8  16 S        2.337    -0.040   142.705    20.106
     9  17 Cl       0.839    -0.466   114.444    16.366
    10   1 H        0.876     0.332     0.625     1.238
    11   1 H        0.860     0.166     1.296     1.783
    12   1 H        0.860     0.167     1.289     1.778
    13   1 H        0.924     0.056     2.246     2.343
    14   1 H        0.924     0.060     2.197     2.318
    15   1 H        0.924     0.046     2.367     2.406
    16   1 H        0.924     0.043     2.404     2.424
    17   1 H        0.926     0.035     2.515     2.480
    18   1 H        0.926     0.038     2.479     2.462
    19   1 H        0.926     0.043     2.403     2.424

Wiberg/Mayer (AO) data.
largest (>0.10) Wiberg bond orders for each atom

     #   Z sym  total        # sym  WBO       # sym  WBO       # sym  WBO
 ---------------------------------------------------------------------------
     1   7 N    3.222 --     2 C    1.014    11 H    0.958    12 H    0.958
                            10 H    0.180
     2   6 C    3.973 --     1 N    1.014     3 C    0.978    13 H    0.974
                            14 H    0.973
     3   6 C    3.997 --     4 C    1.025     2 C    0.978    16 H    0.970
                            15 H    0.969
     4   6 C    3.949 --     5 C    1.605     8 S    1.160     3 C    1.025
                             7 C    0.115
     5   6 C    3.986 --     4 C    1.605     6 C    1.265    17 H    0.965
     6   6 C    3.988 --     7 C    1.638     5 C    1.265    18 H    0.965
     7   6 C    3.946 --     6 C    1.638     8 S    1.186    19 H    0.971
                             4 C    0.115
     8  16 S    2.604 --     7 C    1.186     4 C    1.160
     9  17 Cl   0.784 --    10 H    0.707
    10   1 H    0.890 --     9 Cl   0.707     1 N    0.180
    11   1 H    0.972 --     1 N    0.958
    12   1 H    0.972 --     1 N    0.958
    13   1 H    0.997 --     2 C    0.974
    14   1 H    0.996 --     2 C    0.973
    15   1 H    0.998 --     3 C    0.969
    16   1 H    0.998 --     3 C    0.970
    17   1 H    0.999 --     5 C    0.965
    18   1 H    0.998 --     6 C    0.965
    19   1 H    0.998 --     7 C    0.971
 ---------------------------------------------------------------------------

molecular dipole:
                 x           y           z       tot (Debye)
 q only:        0.614      -0.600      -1.666
   full:        0.637      -0.837      -1.590       4.846

           -------------------------------------------------
          | TOTAL ENERGY              -28.640001610022 Eh   |
          | GRADIENT NORM               0.000723133639 Eh/α |
          | HOMO-LUMO GAP               3.855810852860 eV   |
           -------------------------------------------------

 * finished run on 2023/01/23 at 19:44:21.708
