   * xtb version 6.5.1 (fef0646) compiled by 'conda@b96dff2e9fd6' on 2023-01-04
          program call               : xtb init.xyz --opt -c 1 -u 0 -P 16 --alpb water

   ID    Z sym.   atoms
    1    7 N      1
    2    6 C      2-9
    3    1 H      10-21

      * Solvation model:               ALPB
        Solvent                        water
        Solvent mass                       1.8000E+01 g/mol
          :  Hamiltonian                  GFN2-xTB          :
 * total energy  :   -25.8282566 Eh     change       -0.3436575E-09 Eh
 * total energy  :   -25.8301041 Eh     change       -0.1847463E-02 Eh
 * total energy  :   -25.8303272 Eh     change       -0.2231402E-03 Eh
 * total energy  :   -25.8303861 Eh     change       -0.5886263E-04 Eh
 * total energy  :   -25.8304381 Eh     change       -0.5202082E-04 Eh
 * total energy  :   -25.8304611 Eh     change       -0.2294732E-04 Eh
 * total energy  :   -25.8305091 Eh     change       -0.4801762E-04 Eh
 * total energy  :   -25.8305428 Eh     change       -0.3375314E-04 Eh
 * total energy  :   -25.8305747 Eh     change       -0.3187167E-04 Eh
 * total energy  :   -25.8306056 Eh     change       -0.3091841E-04 Eh
 * total energy  :   -25.8307637 Eh     change       -0.2688142E-04 Eh
 * total energy  :   -25.8307883 Eh     change       -0.2454070E-04 Eh
 * total energy  :   -25.8308319 Eh     change       -0.4365407E-04 Eh
 * total energy  :   -25.8308849 Eh     change       -0.5299823E-04 Eh
 * total energy  :   -25.8308967 Eh     change       -0.1175808E-04 Eh
 * total energy  :   -25.8309121 Eh     change       -0.1545861E-04 Eh
 * total energy  :   -25.8309205 Eh     change       -0.8414399E-05 Eh
 * total energy  :   -25.8309256 Eh     change       -0.5089935E-05 Eh
 * total energy  :   -25.8309292 Eh     change       -0.3562162E-05 Eh
   *** GEOMETRY OPTIMIZATION CONVERGED AFTER 22 ITERATIONS ***

 final structure:
================
21
 xtb: 6.5.1 (fef0646)
N            2.95120908115404       -2.49089099135581       -0.40080689530864
C            2.60140583519731       -1.05860944629205       -0.24171014484941
C            3.05772912513090       -0.55883971885428        1.12904197922774
C            4.56070031988356       -0.56433076233521        1.23748710166029
C            5.30542280178066        0.45839578656501        0.66086819376692
C            6.68660960553261        0.45096531828006        0.73465408601867
C            7.34291471838674       -0.58224516644013        1.38488319195306
C            6.61071282648902       -1.60548303613314        1.96212199868042
C            5.22769154503634       -1.59850880578985        1.88415069089958
H            2.73011993940694       -2.82286404851317       -1.34620407931570
H            2.43560114673919       -3.06086683212406        0.28013254149668
H            3.95689880670438       -2.61522834129481       -0.22668097646812
H            1.52369699057329       -0.93752171232054       -0.34226407367123
H            3.09730299973347       -0.48211341816075       -1.02243632720638
H            2.62641406230455       -1.17641909879286        1.91668074823022
H            2.69213818135336        0.45820870060406        1.26558813941654
H            4.80296976458505        1.27388077573468        0.16206368835905
H            7.25595657961105        1.25437928807437        0.29069861275445
H            8.42113431272179       -0.58333887050088        1.44819068163074
H            7.11945733361619       -2.40783915655153        2.47572104936095
H            4.67094402405953       -2.39209046379899        2.36050979336434

          :  Hamiltonian                  GFN2-xTB          :
         :: total energy             -25.830929190894 Eh    ::
         :: gradient norm              0.000276678001 Eh/a0 ::
         :: HOMO-LUMO gap              4.767363114797 eV    ::
         :: SCC energy               -26.282858848741 Eh    ::
         :: -> dispersion             -0.015055450716 Eh    ::
         :: -> Gsolv                  -0.116545233861 Eh    ::
         :: repulsion energy           0.451834486317 Eh    ::

    * Orbital Energies and Occupations

         #    Occupation            Energy/Eh            Energy/eV
      -------------------------------------------------------------
         1        2.0000           -0.6933378             -18.8667
       ...           ...                  ...                  ...
        12        2.0000           -0.5276896             -14.3592
        13        2.0000           -0.5075755             -13.8118
        14        2.0000           -0.5008702             -13.6294
        15        2.0000           -0.4924613             -13.4006
        16        2.0000           -0.4861450             -13.2287
        17        2.0000           -0.4777893             -13.0013
        18        2.0000           -0.4702796             -12.7970
        19        2.0000           -0.4643250             -12.6349
        20        2.0000           -0.4552225             -12.3872
        21        2.0000           -0.4243118             -11.5461
        22        2.0000           -0.4212118             -11.4618
        23        2.0000           -0.4061227             -11.0512
        24        2.0000           -0.4010850             -10.9141 (HOMO)
        25                         -0.2258877              -6.1467 (LUMO)
        26                         -0.2250059              -6.1227
        27                         -0.0970135              -2.6399
        28                         -0.0459777              -1.2511
        29                          0.0585519               1.5933
        30                          0.0827028               2.2505
        31                          0.1003613               2.7310
        32                          0.1161753               3.1613
        33                          0.1251333               3.4051
        34                          0.1382134               3.7610
        35                          0.1599276               4.3519
       ...                                ...                  ...
        48                          0.6602363              17.9659
      -------------------------------------------------------------
                  HL-Gap            0.1751974 Eh            4.7674 eV

     #   Z          covCN         q      C6AA      α(0)
     1   7 N        3.485    -0.155    24.334     7.327
     2   6 C        3.733    -0.036    21.315     6.590
     3   6 C        3.809    -0.095    22.303     6.723
     4   6 C        2.970     0.010    27.800     8.649
     5   6 C        2.924    -0.045    29.112     8.848
     6   6 C        2.919    -0.033    28.834     8.806
     7   6 C        2.920    -0.035    28.881     8.813
     8   6 C        2.918    -0.036    28.896     8.815
     9   6 C        2.924    -0.054    29.332     8.882
    10   1 H        0.859     0.317     0.665     1.278
    11   1 H        0.859     0.310     0.685     1.297
    12   1 H        0.859     0.294     0.732     1.341
    13   1 H        0.925     0.117     1.641     2.003
    14   1 H        0.925     0.109     1.707     2.043
    15   1 H        0.925     0.081     1.972     2.196
    16   1 H        0.925     0.080     1.979     2.200
    17   1 H        0.926     0.045     2.385     2.415
    18   1 H        0.926     0.024     2.678     2.559
    19   1 H        0.926     0.018     2.758     2.597
    20   1 H        0.926     0.030     2.590     2.517
    21   1 H        0.926     0.057     2.238     2.339

Wiberg/Mayer (AO) data.
largest (>0.10) Wiberg bond orders for each atom

     #   Z sym  total        # sym  WBO       # sym  WBO       # sym  WBO
 ---------------------------------------------------------------------------
     1   7 N    3.657 --     2 C    0.966    12 H    0.892    11 H    0.889
                            10 H    0.886
     2   6 C    3.927 --     3 C    0.998    14 H    0.966     1 N    0.966
                            13 H    0.964
     3   6 C    3.988 --     4 C    1.009     2 C    0.998    15 H    0.967
                            16 H    0.961
     4   6 C    3.988 --     9 C    1.415     5 C    1.408     3 C    1.009
                             7 C    0.109
     5   6 C    3.990 --     6 C    1.450     4 C    1.408    17 H    0.968
                             8 C    0.113
     6   6 C    3.992 --     5 C    1.450     7 C    1.434    18 H    0.972
                             9 C    0.110
     7   6 C    3.993 --     8 C    1.443     6 C    1.434    19 H    0.972
                             4 C    0.109
     8   6 C    3.992 --     7 C    1.443     9 C    1.437    20 H    0.971
                             5 C    0.113
     9   6 C    3.988 --     8 C    1.437     4 C    1.415    21 H    0.966
                             6 C    0.110
    10   1 H    0.900 --     1 N    0.886
    11   1 H    0.904 --     1 N    0.889
    12   1 H    0.914 --     1 N    0.892
    13   1 H    0.986 --     2 C    0.964
    14   1 H    0.988 --     2 C    0.966
    15   1 H    0.993 --     3 C    0.967
    16   1 H    0.993 --     3 C    0.961
    17   1 H    0.998 --     5 C    0.968
    18   1 H    0.999 --     6 C    0.972
    19   1 H    0.999 --     7 C    0.972
    20   1 H    0.999 --     8 C    0.971
    21   1 H    0.997 --     9 C    0.966
 ---------------------------------------------------------------------------

molecular dipole:
                 x           y           z       tot (Debye)
 q only:        5.110      -4.463      -0.667
   full:        5.392      -4.484      -0.625      17.897

           -------------------------------------------------
          | TOTAL ENERGY              -25.830929190894 Eh   |
          | GRADIENT NORM               0.000276678001 Eh/α |
          | HOMO-LUMO GAP               4.767363114797 eV   |
           -------------------------------------------------

 * finished run on 2023/01/24 at 14:57:43.383
