   * xtb version 6.5.1 (fef0646) compiled by 'conda@b96dff2e9fd6' on 2023-01-04
          program call               : xtb init.xyz --opt -c 1 -u 0 -P 16 --alpb water

   ID    Z sym.   atoms
    1    7 N      1
    2    6 C      2-6
    3   16 S      7
    4    1 H      8-15

      * Solvation model:               ALPB
        Solvent                        water
        Solvent mass                       1.8000E+01 g/mol
          :  Hamiltonian                  GFN2-xTB          :
 * total energy  :   -20.5977363 Eh     change       -0.4029843E-10 Eh
 * total energy  :   -20.5996192 Eh     change       -0.1882935E-02 Eh
 * total energy  :   -20.5998418 Eh     change       -0.2225094E-03 Eh
 * total energy  :   -20.5998937 Eh     change       -0.5196336E-04 Eh
 * total energy  :   -20.5999210 Eh     change       -0.2730198E-04 Eh
 * total energy  :   -20.5999423 Eh     change       -0.2126548E-04 Eh
 * total energy  :   -20.5999597 Eh     change       -0.1742901E-04 Eh
 * total energy  :   -20.5999893 Eh     change       -0.2955530E-04 Eh
 * total energy  :   -20.6000244 Eh     change       -0.3508562E-04 Eh
 * total energy  :   -20.6000373 Eh     change       -0.1292456E-04 Eh
 * total energy  :   -20.6000591 Eh     change       -0.2184294E-04 Eh
 * total energy  :   -20.6000704 Eh     change       -0.1129277E-04 Eh
 * total energy  :   -20.6000783 Eh     change       -0.7848126E-05 Eh
 * total energy  :   -20.6000818 Eh     change       -0.3531843E-05 Eh
   *** GEOMETRY OPTIMIZATION CONVERGED AFTER 14 ITERATIONS ***

 final structure:
================
15
 xtb: 6.5.1 (fef0646)
N            3.33375703001497       -0.93191214315633       -0.88578911113518
C            2.51748995300784       -0.03744335358184       -0.03028159012716
C            3.00396596726197       -0.06050697402708        1.38048429034289
C            3.20020125580409        0.97674892649584        2.23611028118574
C            3.63429719806656        0.55734022787486        3.51610811989727
C            3.76890586698338       -0.78855699969604        3.61461127102742
S            3.35233380585520       -1.58269308731781        2.15969894789757
H            2.96112139373448       -0.95924320727279       -1.84176453165293
H            3.32113585790958       -1.88107533693204       -0.49150082932107
H            4.30949498083256       -0.61341296983886       -0.91278949797464
H            1.47920707374214       -0.37537443559858       -0.06238137826604
H            2.56163483670632        0.98494013540047       -0.40600135613158
H            3.04305750544086        2.00818859441640        1.98076159689393
H            3.84467703830767        1.22994693008198        4.32819608019164
H            4.08945023633232       -1.37200630684810        4.45547770717210

          :  Hamiltonian                  GFN2-xTB          :
         :: total energy             -20.600081791833 Eh    ::
         :: gradient norm              0.000468605977 Eh/a0 ::
         :: HOMO-LUMO gap              3.933412393927 eV    ::
         :: SCC energy               -20.904970377333 Eh    ::
         :: -> dispersion             -0.010475810719 Eh    ::
         :: -> Gsolv                  -0.120592895282 Eh    ::
         :: repulsion energy           0.304871803334 Eh    ::

    * Orbital Energies and Occupations

         #    Occupation            Energy/Eh            Energy/eV
      -------------------------------------------------------------
         1        2.0000           -0.7409854             -20.1632
       ...           ...                  ...                  ...
         7        2.0000           -0.5890271             -16.0282
         8        2.0000           -0.5777404             -15.7211
         9        2.0000           -0.5577857             -15.1781
        10        2.0000           -0.5514582             -15.0059
        11        2.0000           -0.5258524             -14.3092
        12        2.0000           -0.5025376             -13.6747
        13        2.0000           -0.4826454             -13.1334
        14        2.0000           -0.4803167             -13.0701
        15        2.0000           -0.4708774             -12.8132
        16        2.0000           -0.4618741             -12.5682
        17        2.0000           -0.4544316             -12.3657
        18        2.0000           -0.4032820             -10.9739
        19        2.0000           -0.3968136             -10.7978 (HOMO)
        20                         -0.2522633              -6.8644 (LUMO)
        21                         -0.2118120              -5.7637
        22                         -0.1750991              -4.7647
        23                         -0.1268852              -3.4527
        24                         -0.0424334              -1.1547
        25                         -0.0105426              -0.2869
        26                          0.0197769               0.5382
        27                          0.0299914               0.8161
        28                          0.0698558               1.9009
        29                          0.1003979               2.7320
        30                          0.1272954               3.4639
       ...                                ...                  ...
        41                          0.6947751              18.9058
      -------------------------------------------------------------
                  HL-Gap            0.1445502 Eh            3.9334 eV

     #   Z          covCN         q      C6AA      α(0)
     1   7 N        3.486    -0.164    24.540     7.357
     2   6 C        3.754    -0.045    21.444     6.603
     3   6 C        2.989     0.016    27.636     8.623
     4   6 C        3.111    -0.060    29.323     8.871
     5   6 C        3.128    -0.049    29.019     8.820
     6   6 C        2.936    -0.028    28.701     8.786
     7  16 S        2.337    -0.017   141.774    20.040
     8   1 H        0.859     0.329     0.634     1.248
     9   1 H        0.859     0.314     0.672     1.284
    10   1 H        0.859     0.317     0.664     1.276
    11   1 H        0.924     0.139     1.469     1.896
    12   1 H        0.925     0.134     1.506     1.919
    13   1 H        0.926     0.060     2.198     2.318
    14   1 H        0.926     0.028     2.615     2.529
    15   1 H        0.926     0.026     2.639     2.540

Wiberg/Mayer (AO) data.
largest (>0.10) Wiberg bond orders for each atom

     #   Z sym  total        # sym  WBO       # sym  WBO       # sym  WBO
 ---------------------------------------------------------------------------
     1   7 N    3.647 --     2 C    0.970    10 H    0.885     9 H    0.884
                             8 H    0.879
     2   6 C    3.931 --     3 C    1.027     1 N    0.970    12 H    0.954
                            11 H    0.944
     3   6 C    3.944 --     4 C    1.605     7 S    1.152     2 C    1.027
                             6 C    0.115
     4   6 C    3.987 --     3 C    1.605     5 C    1.266    13 H    0.962
     5   6 C    3.989 --     6 C    1.642     4 C    1.266    14 H    0.965
     6   6 C    3.957 --     5 C    1.642     7 S    1.190    15 H    0.973
                             3 C    0.115
     7  16 S    2.613 --     6 C    1.190     3 C    1.152
     8   1 H    0.892 --     1 N    0.879
     9   1 H    0.901 --     1 N    0.884
    10   1 H    0.899 --     1 N    0.885
    11   1 H    0.981 --     2 C    0.944
    12   1 H    0.982 --     2 C    0.954
    13   1 H    0.996 --     4 C    0.962
    14   1 H    0.999 --     5 C    0.965
    15   1 H    0.999 --     6 C    0.973
 ---------------------------------------------------------------------------

molecular dipole:
                 x           y           z       tot (Debye)
 q only:        6.019      -1.483      -1.949
   full:        6.182      -1.335      -1.272      16.397

           -------------------------------------------------
          | TOTAL ENERGY              -20.600081791833 Eh   |
          | GRADIENT NORM               0.000468605977 Eh/α |
          | HOMO-LUMO GAP               3.933412393927 eV   |
           -------------------------------------------------

 * finished run on 2023/01/24 at 14:55:58.999
