   * xtb version 6.5.1 (fef0646) compiled by 'conda@b96dff2e9fd6' on 2023-01-04
          program call               : xtb init.xyz --opt -c 1 -u 0 -P 16 --alpb water

   ID    Z sym.   atoms
    1    7 N      1
    2    6 C      2, 3, 5
    3   16 S      4
    4    1 H      6-15

      * Solvation model:               ALPB
        Solvent                        water
        Solvent mass                       1.8000E+01 g/mol
          :  Hamiltonian                  GFN2-xTB          :
 * total energy  :   -17.3502814 Eh     change       -0.2276224E-10 Eh
 * total energy  :   -17.3517838 Eh     change       -0.1502352E-02 Eh
 * total energy  :   -17.3520136 Eh     change       -0.2297848E-03 Eh
 * total energy  :   -17.3520502 Eh     change       -0.3662857E-04 Eh
 * total energy  :   -17.3520694 Eh     change       -0.1923360E-04 Eh
 * total energy  :   -17.3520791 Eh     change       -0.9654386E-05 Eh
 * total energy  :   -17.3520914 Eh     change       -0.1234101E-04 Eh
 * total energy  :   -17.3520946 Eh     change       -0.3163434E-05 Eh
   *** GEOMETRY OPTIMIZATION CONVERGED AFTER 8 ITERATIONS ***

 final structure:
================
15
 xtb: 6.5.1 (fef0646)
N            2.95413988536619       -1.45882601208466       -0.33404134557893
C            2.48920481818647       -0.10617451197139        0.04456208217123
C            3.05830936161865        0.27650852916995        1.39826010976000
S            4.90796418114270        0.27040381286710        1.30049643278378
C            5.30180764372881        0.75624198832156        2.98634136648834
H            2.65940123355755       -1.70016839769375       -1.28610284159045
H            2.59562665295886       -2.16350002931769        0.32027749728015
H            3.98252190353475       -1.47116961371657       -0.28300062151071
H            1.39996187672241       -0.08457250281528        0.08636295964832
H            2.83311300309791        0.60867121597322       -0.70282352234163
H            2.76911275067585       -0.42667688144025        2.17792119097626
H            2.74358000727829        1.27921742368799        1.67893121052706
H            6.38488729441992        0.75376372303427        3.06993068019931
H            4.87419426336770        0.03937961108348        3.68145891722138
H            4.91852512434394        1.75609164490202        3.17441588396588

          :  Hamiltonian                  GFN2-xTB          :
         :: total energy             -17.352094578652 Eh    ::
         :: gradient norm              0.000540013683 Eh/a0 ::
         :: HOMO-LUMO gap              4.198412692849 eV    ::
         :: SCC energy               -17.559114303272 Eh    ::
         :: -> dispersion             -0.007396187240 Eh    ::
         :: -> Gsolv                  -0.117656247349 Eh    ::
         :: repulsion energy           0.207009639132 Eh    ::

    * Orbital Energies and Occupations

         #    Occupation            Energy/Eh            Energy/eV
      -------------------------------------------------------------
         1        2.0000           -0.7212017             -19.6249
       ...           ...                  ...                  ...
         4        2.0000           -0.6118311             -16.6488
         5        2.0000           -0.6056268             -16.4799
         6        2.0000           -0.5842741             -15.8989
         7        2.0000           -0.5793418             -15.7647
         8        2.0000           -0.5499333             -14.9644
         9        2.0000           -0.5148836             -14.0107
        10        2.0000           -0.5055339             -13.7563
        11        2.0000           -0.5025202             -13.6743
        12        2.0000           -0.4930206             -13.4158
        13        2.0000           -0.4732393             -12.8775
        14        2.0000           -0.4694667             -12.7748
        15        2.0000           -0.4438915             -12.0789
        16        2.0000           -0.3645524              -9.9200 (HOMO)
        17                         -0.2102636              -5.7216 (LUMO)
        18                         -0.1478133              -4.0222
        19                         -0.0450710              -1.2264
        20                         -0.0110789              -0.3015
        21                         -0.0041635              -0.1133
        22                          0.0145583               0.3962
        23                          0.0706609               1.9228
        24                          0.0920468               2.5047
        25                          0.1187385               3.2310
        26                          0.1377820               3.7492
        27                          0.1490987               4.0572
       ...                                ...                  ...
        35                          0.4193980              11.4124
      -------------------------------------------------------------
                  HL-Gap            0.1542888 Eh            4.1984 eV

     #   Z          covCN         q      C6AA      α(0)
     1   7 N        3.486    -0.164    24.535     7.357
     2   6 C        3.769    -0.041    21.341     6.584
     3   6 C        3.793    -0.033    21.171     6.552
     4  16 S        1.976    -0.239   151.312    20.703
     5   6 C        3.746    -0.052    21.578     6.626
     6   1 H        0.859     0.324     0.645     1.258
     7   1 H        0.859     0.316     0.668     1.280
     8   1 H        0.859     0.312     0.679     1.291
     9   1 H        0.924     0.130     1.537     1.939
    10   1 H        0.925     0.127     1.561     1.954
    11   1 H        0.925     0.089     1.886     2.148
    12   1 H        0.925     0.079     1.991     2.206
    13   1 H        0.925     0.047     2.356     2.400
    14   1 H        0.925     0.059     2.208     2.323
    15   1 H        0.925     0.046     2.366     2.405

Wiberg/Mayer (AO) data.
largest (>0.10) Wiberg bond orders for each atom

     #   Z sym  total        # sym  WBO       # sym  WBO       # sym  WBO
 ---------------------------------------------------------------------------
     1   7 N    3.649 --     2 C    0.975     7 H    0.886     6 H    0.882
                             8 H    0.881
     2   6 C    3.930 --     3 C    1.021     1 N    0.975    10 H    0.961
                             9 H    0.956
     3   6 C    3.970 --     2 C    1.021     4 S    0.982    12 H    0.969
                            11 H    0.967
     4  16 S    2.079 --     5 C    1.011     3 C    0.982
     5   6 C    3.978 --     4 S    1.011    15 H    0.985    14 H    0.984
                            13 H    0.982
     6   1 H    0.895 --     1 N    0.882
     7   1 H    0.900 --     1 N    0.886
     8   1 H    0.903 --     1 N    0.881
     9   1 H    0.983 --     2 C    0.956
    10   1 H    0.984 --     2 C    0.961
    11   1 H    0.992 --     3 C    0.967
    12   1 H    0.994 --     3 C    0.969
    13   1 H    0.998 --     5 C    0.982
    14   1 H    0.996 --     5 C    0.984
    15   1 H    0.998 --     5 C    0.985
 ---------------------------------------------------------------------------

molecular dipole:
                 x           y           z       tot (Debye)
 q only:        4.929      -2.485      -0.199
   full:        5.154      -2.229       0.421      14.312

           -------------------------------------------------
          | TOTAL ENERGY              -17.352094578652 Eh   |
          | GRADIENT NORM               0.000540013683 Eh/α |
          | HOMO-LUMO GAP               4.198412692849 eV   |
           -------------------------------------------------

 * finished run on 2023/01/24 at 14:58:13.751
