   * xtb version 6.5.1 (fef0646) compiled by 'conda@b96dff2e9fd6' on 2023-01-04
          program call               : xtb init.xyz --opt -c 1 -u 0 -P 16 --alpb water

   ID    Z sym.   atoms
    1    7 N      1
    2    6 C      2-4
    3    1 H      5-14

      * Solvation model:               ALPB
        Solvent                        water
        Solvent mass                       1.8000E+01 g/mol
          :  Hamiltonian                  GFN2-xTB          :
 * total energy  :   -14.1138155 Eh     change       -0.2023270E-11 Eh
 * total energy  :   -14.1147179 Eh     change       -0.9023818E-03 Eh
 * total energy  :   -14.1148280 Eh     change       -0.1101483E-03 Eh
 * total energy  :   -14.1148406 Eh     change       -0.1256206E-04 Eh
 * total energy  :   -14.1148426 Eh     change       -0.1985874E-05 Eh
   *** GEOMETRY OPTIMIZATION CONVERGED AFTER 5 ITERATIONS ***

 final structure:
================
14
 xtb: 6.5.1 (fef0646)
N            0.87282862337242        0.00664638825522        0.00478739639124
C            2.35643770351907        0.00650258125642       -0.01038243802597
C            2.88518088842983       -0.17342534293383       -1.42946970489518
C            4.41016892338568       -0.17791069796896       -1.43492078289663
H            0.51819227544602        0.13012045937149        0.95988477654523
H            0.51540039653971       -0.88114613502593       -0.36766653260403
H            0.51389688861781        0.76926166545211       -0.58179447259281
H            2.72095534335391       -0.80380806117193        0.62104140126966
H            2.71876774819806        0.95021966949729        0.39735678419194
H            2.53475620931435        0.63858731955118       -2.06785195728654
H            2.53055892173598       -1.11642495461275       -1.84733649141493
H            4.80320196482201        0.75764836528406       -1.04440641834502
H            4.78730924732941       -0.30451312825689       -2.44619011674736
H            4.79875486593575       -0.99142812869749       -0.82709144358962

          :  Hamiltonian                  GFN2-xTB          :
         :: total energy             -14.114842567900 Eh    ::
         :: gradient norm              0.000174016430 Eh/a0 ::
         :: HOMO-LUMO gap             10.409299749899 eV    ::
         :: SCC energy               -14.320200435838 Eh    ::
         :: -> dispersion             -0.005062564177 Eh    ::
         :: -> Gsolv                  -0.116404503859 Eh    ::
         :: repulsion energy           0.205353940526 Eh    ::

    * Orbital Energies and Occupations

         #    Occupation            Energy/Eh            Energy/eV
      -------------------------------------------------------------
         1        2.0000           -0.6921734             -18.8350
         2        2.0000           -0.6463876             -17.5891
         3        2.0000           -0.6165891             -16.7782
         4        2.0000           -0.5923490             -16.1186
         5        2.0000           -0.5900243             -16.0554
         6        2.0000           -0.5610595             -15.2672
         7        2.0000           -0.5488484             -14.9349
         8        2.0000           -0.5150010             -14.0139
         9        2.0000           -0.4895192             -13.3205
        10        2.0000           -0.4680715             -12.7369
        11        2.0000           -0.4658734             -12.6771
        12        2.0000           -0.4452508             -12.1159
        13        2.0000           -0.4330958             -11.7851 (HOMO)
        14                         -0.0505611              -1.3758 (LUMO)
        15                          0.0536522               1.4600
        16                          0.0881716               2.3993
        17                          0.1031225               2.8061
        18                          0.1273348               3.4650
        19                          0.1458870               3.9698
        20                          0.1705615               4.6412
        21                          0.1826792               4.9710
        22                          0.1854853               5.0473
        23                          0.2240018               6.0954
        24                          0.2367053               6.4411
       ...                                ...                  ...
        26                          0.2984900               8.1223
      -------------------------------------------------------------
                  HL-Gap            0.3825347 Eh           10.4093 eV

     #   Z          covCN         q      C6AA      α(0)
     1   7 N        3.484    -0.162    24.494     7.351
     2   6 C        3.733    -0.038    21.344     6.594
     3   6 C        3.801    -0.079    22.014     6.680
     4   6 C        3.753    -0.124    22.930     6.828
     5   1 H        0.859     0.316     0.668     1.281
     6   1 H        0.859     0.308     0.690     1.301
     7   1 H        0.859     0.308     0.690     1.302
     8   1 H        0.925     0.106     1.728     2.055
     9   1 H        0.925     0.106     1.727     2.055
    10   1 H        0.924     0.064     2.151     2.294
    11   1 H        0.924     0.064     2.149     2.293
    12   1 H        0.925     0.045     2.389     2.417
    13   1 H        0.925     0.041     2.438     2.442
    14   1 H        0.925     0.045     2.389     2.417

Wiberg/Mayer (AO) data.
largest (>0.10) Wiberg bond orders for each atom

     #   Z sym  total        # sym  WBO       # sym  WBO       # sym  WBO
 ---------------------------------------------------------------------------
     1   7 N    3.653 --     2 C    0.965     7 H    0.891     6 H    0.890
                             5 H    0.887
     2   6 C    3.926 --     3 C    1.011     9 H    0.967     8 H    0.967
                             1 N    0.965
     3   6 C    3.991 --     4 C    1.017     2 C    1.011    10 H    0.974
                            11 H    0.974
     4   6 C    3.993 --     3 C    1.017    12 H    0.987    14 H    0.987
                            13 H    0.986
     5   1 H    0.900 --     1 N    0.887
     6   1 H    0.905 --     1 N    0.890
     7   1 H    0.905 --     1 N    0.891
     8   1 H    0.989 --     2 C    0.967
     9   1 H    0.989 --     2 C    0.967
    10   1 H    0.996 --     3 C    0.974
    11   1 H    0.996 --     3 C    0.974
    12   1 H    0.998 --     4 C    0.987
    13   1 H    0.998 --     4 C    0.986
    14   1 H    0.998 --     4 C    0.987
 ---------------------------------------------------------------------------

molecular dipole:
                 x           y           z       tot (Debye)
 q only:        1.897       0.005      -0.048
   full:        1.814       0.004      -0.059       4.614

           -------------------------------------------------
          | TOTAL ENERGY              -14.114842567900 Eh   |
          | GRADIENT NORM               0.000174016430 Eh/α |
          | HOMO-LUMO GAP              10.409299749899 eV   |
           -------------------------------------------------

 * finished run on 2023/01/24 at 15:26:34.714
