   * xtb version 6.5.1 (fef0646) compiled by 'conda@b96dff2e9fd6' on 2023-01-04
          program call               : xtb init.xyz --opt -c 1 -u 0 -P 16 --input xtb.inp

   ID    Z sym.   atoms
    1    7 N      1
    2    6 C      2-4
    3    1 H      5-14

          :  Hamiltonian                  GFN2-xTB          :
 * total energy  :   -14.0025629 Eh     change       -0.2145661E-10 Eh
 * total energy  :   -14.0034540 Eh     change       -0.8910694E-03 Eh
 * total energy  :   -14.0035550 Eh     change       -0.1010302E-03 Eh
 * total energy  :   -14.0035680 Eh     change       -0.1300584E-04 Eh
 * total energy  :   -14.0035691 Eh     change       -0.1137750E-05 Eh
   *** GEOMETRY OPTIMIZATION CONVERGED AFTER 5 ITERATIONS ***

 final structure:
================
14
 xtb: 6.5.1 (fef0646)
N            0.99750642041965        0.03595858443876        0.07940866888876
C            2.49547562429699        0.05426996169323        0.08209875911722
C            3.01688971945884        1.46347235644000        0.32935219170452
C            4.54276981133509        1.46893350436787        0.32905018435565
H            0.63258209368617       -0.91033707528960       -0.08635637515685
H            0.64365493046992        0.66219913411745       -0.65624679048165
H            0.64423673964472        0.37457239195858        0.98446170410959
H            2.84711144334330       -0.31472622009205       -0.88240240945963
H            2.84773148011829       -0.62120288023320        0.86294956865713
H            2.65824616989740        1.82974577725737        1.29293840095069
H            2.65681982516384        2.13625091905664       -0.45103515440665
H            4.93168395033161        0.82308784169914        1.11109041163748
H            4.90970679641115        2.47484853687233        0.50573862194739
H            4.93024499542304        1.12892716771348       -0.62709778186364

          :  Hamiltonian                  GFN2-xTB          :
         :: total energy             -14.003569148302 Eh    ::
         :: gradient norm              0.000287531192 Eh/a0 ::
         :: HOMO-LUMO gap              8.553112647424 eV    ::
         :: SCC energy               -14.207444962306 Eh    ::
         :: -> dispersion             -0.005008049382 Eh    ::
         :: repulsion energy           0.203871867542 Eh    ::

    * Orbital Energies and Occupations

         #    Occupation            Energy/Eh            Energy/eV
      -------------------------------------------------------------
         1        2.0000           -0.9004771             -24.5032
         2        2.0000           -0.8462456             -23.0275
         3        2.0000           -0.8107556             -22.0618
         4        2.0000           -0.8063480             -21.9418
         5        2.0000           -0.7801897             -21.2300
         6        2.0000           -0.7348672             -19.9968
         7        2.0000           -0.7175272             -19.5249
         8        2.0000           -0.6923486             -18.8398
         9        2.0000           -0.6607117             -17.9789
        10        2.0000           -0.6352629             -17.2864
        11        2.0000           -0.6180680             -16.8185
        12        2.0000           -0.5903266             -16.0636
        13        2.0000           -0.5839453             -15.8900 (HOMO)
        14                         -0.2696242              -7.3368 (LUMO)
        15                         -0.1648010              -4.4845
        16                         -0.1064967              -2.8979
        17                         -0.1063177              -2.8931
        18                         -0.0589410              -1.6039
        19                         -0.0209667              -0.5705
        20                         -0.0133582              -0.3635
        21                         -0.0005949              -0.0162
        22                          0.0292807               0.7968
        23                          0.0667721               1.8170
        24                          0.0671987               1.8286
       ...                                ...                  ...
        26                          0.1428650               3.8876
      -------------------------------------------------------------
                  HL-Gap            0.3143211 Eh            8.5531 eV

     #   Z          covCN         q      C6AA      α(0)
     1   7 N        3.482    -0.128    23.763     7.240
     2   6 C        3.732    -0.035    21.291     6.586
     3   6 C        3.800    -0.074    21.922     6.666
     4   6 C        3.754    -0.123    22.918     6.826
     5   1 H        0.859     0.271     0.807     1.407
     6   1 H        0.859     0.273     0.801     1.402
     7   1 H        0.859     0.273     0.801     1.402
     8   1 H        0.924     0.109     1.708     2.044
     9   1 H        0.924     0.109     1.708     2.044
    10   1 H        0.924     0.063     2.159     2.298
    11   1 H        0.924     0.063     2.159     2.298
    12   1 H        0.925     0.061     2.186     2.312
    13   1 H        0.925     0.078     2.003     2.213
    14   1 H        0.925     0.061     2.186     2.312

Wiberg/Mayer (AO) data.
largest (>0.10) Wiberg bond orders for each atom

     #   Z sym  total        # sym  WBO       # sym  WBO       # sym  WBO
 ---------------------------------------------------------------------------
     1   7 N    3.675 --     2 C    0.920     5 H    0.912     6 H    0.910
                             7 H    0.910
     2   6 C    3.883 --     3 C    1.007     9 H    0.966     8 H    0.966
                             1 N    0.920
     3   6 C    3.981 --     4 C    1.010     2 C    1.007    10 H    0.973
                            11 H    0.973
     4   6 C    3.983 --     3 C    1.010    14 H    0.985    12 H    0.985
                            13 H    0.981
     5   1 H    0.926 --     1 N    0.912
     6   1 H    0.926 --     1 N    0.910
     7   1 H    0.926 --     1 N    0.910
     8   1 H    0.988 --     2 C    0.966
     9   1 H    0.988 --     2 C    0.966
    10   1 H    0.996 --     3 C    0.973
    11   1 H    0.996 --     3 C    0.973
    12   1 H    0.996 --     4 C    0.985
    13   1 H    0.994 --     4 C    0.981
    14   1 H    0.996 --     4 C    0.985
 ---------------------------------------------------------------------------

molecular dipole:
                 x           y           z       tot (Debye)
 q only:        2.767       0.381       0.205
   full:        2.462       0.304       0.191       6.323

           -------------------------------------------------
          | TOTAL ENERGY              -14.003569148302 Eh   |
          | GRADIENT NORM               0.000287531192 Eh/α |
          | HOMO-LUMO GAP               8.553112647424 eV   |
           -------------------------------------------------

 * finished run on 2023/01/23 at 19:05:28.746
