   * xtb version 6.5.1 (fef0646) compiled by 'conda@b96dff2e9fd6' on 2023-01-04
          program call               : xtb init.xyz --opt -c 0 -u 0 -P 16 --input xtb.inp

   ID    Z sym.   atoms
    1    7 N      1
    2    6 C      2, 3, 5-14
    3    8 O      4
    4   17 Cl     15
    5    1 H      16-29

          :  Hamiltonian                  GFN2-xTB          :
 * total energy  :   -44.3329075 Eh     change       -0.1472465E-08 Eh
 * total energy  :   -44.3439747 Eh     change       -0.1106723E-01 Eh
 * total energy  :   -44.3490632 Eh     change       -0.5088527E-02 Eh
 * total energy  :   -44.3521279 Eh     change       -0.3064720E-02 Eh
 * total energy  :   -44.3557670 Eh     change       -0.3639078E-02 Eh
 * total energy  :   -44.3581739 Eh     change       -0.2406882E-02 Eh
 * total energy  :   -44.3589013 Eh     change       -0.7274321E-03 Eh
 * total energy  :   -44.3593681 Eh     change       -0.4667366E-03 Eh
 * total energy  :   -44.3595491 Eh     change       -0.1810191E-03 Eh
 * total energy  :   -44.3597693 Eh     change       -0.2202011E-03 Eh
 * total energy  :   -44.3609794 Eh     change       -0.2852129E-04 Eh
 * total energy  :   -44.3611429 Eh     change       -0.1634273E-03 Eh
 * total energy  :   -44.3612059 Eh     change       -0.6302823E-04 Eh
 * total energy  :   -44.3612613 Eh     change       -0.5538083E-04 Eh
 * total energy  :   -44.3612881 Eh     change       -0.2680669E-04 Eh
 * total energy  :   -44.3613065 Eh     change       -0.1842836E-04 Eh
 * total energy  :   -44.3613187 Eh     change       -0.1214620E-04 Eh
 * total energy  :   -44.3613274 Eh     change       -0.8699580E-05 Eh
 * total energy  :   -44.3613317 Eh     change       -0.4325275E-05 Eh
   *** GEOMETRY OPTIMIZATION CONVERGED AFTER 26 ITERATIONS ***

 final structure:
================
29
 xtb: 6.5.1 (fef0646)
N            2.25108444000162        0.35928193585811        0.33407996883720
C            2.82061367938238       -0.43669209753920       -0.74380197736875
C            3.33082699732636       -1.80485354832651       -0.28037872995487
O            4.35788334038788       -1.57009826480042        0.65811843412282
C            4.98912937705180       -2.63937527075470        1.22671197016851
C            4.67352128892797       -3.95272030769496        0.98369320030524
C            5.37426523465432       -4.98168771296733        1.63224485656200
C            6.37842789845059       -4.70325147447301        2.51204042685949
C            6.73578993655169       -3.36482163718164        2.78188014831118
C            7.77335675445878       -3.03640801946862        3.67862667462969
C            8.10734340822769       -1.73331446915405        3.92083851352500
C            7.41854891351235       -0.69617074244724        3.27567413597998
C            6.40564884487148       -0.98002154222979        2.40193656297222
C            6.03892497598430       -2.31381339230736        2.13473392624516
Cl           1.20851239200722        2.90712939839370       -0.72923509844315
H            1.70487056559375        1.74702573900545       -0.23246390814080
H            2.95556631821237        0.52356189182221        1.04609715515225
H            1.47106008797263       -0.12614477268585        0.76643668659381
H            3.65163317411514        0.12789286766115       -1.17028935633311
H            2.05899721828453       -0.57821250477693       -1.51282550252085
H            3.71214122830336       -2.37250179792126       -1.13916124858532
H            2.51147261688797       -2.37323338708076        0.18464700266569
H            3.88771446851510       -4.22192128336945        0.29551502332775
H            5.09954956626715       -6.00439799813146        1.42016237840121
H            6.91352335615396       -5.49766761782913        3.01061877367133
H            8.30216388684800       -3.84019111517827        4.17078713838365
H            8.90508415272044       -1.49339092926325        4.60862005774995
H            7.69540601874894        0.32887163884041        3.47334531498451
H            5.87423985961118       -0.18827358597413        1.89680747184269

          :  Hamiltonian                  GFN2-xTB          :
         :: total energy             -44.361331693946 Eh    ::
         :: gradient norm              0.000506572848 Eh/a0 ::
         :: HOMO-LUMO gap              3.126708142392 eV    ::
         :: SCC energy               -44.994859226737 Eh    ::
         :: -> dispersion             -0.026761883083 Eh    ::
         :: repulsion energy           0.633561784059 Eh    ::

    * Orbital Energies and Occupations

         #    Occupation            Energy/Eh            Energy/eV
      -------------------------------------------------------------
         1        2.0000           -1.0205629             -27.7709
       ...           ...                  ...                  ...
        28        2.0000           -0.4740337             -12.8991
        29        2.0000           -0.4702173             -12.7953
        30        2.0000           -0.4615370             -12.5591
        31        2.0000           -0.4522873             -12.3074
        32        2.0000           -0.4509896             -12.2721
        33        2.0000           -0.4239830             -11.5372
        34        2.0000           -0.4210170             -11.4565
        35        2.0000           -0.4175818             -11.3630
        36        2.0000           -0.4068695             -11.0715
        37        2.0000           -0.4058411             -11.0435
        38        2.0000           -0.3978002             -10.8247
        39        2.0000           -0.3977377             -10.8230
        40        2.0000           -0.3743839             -10.1875 (HOMO)
        41                         -0.2594795              -7.0608 (LUMO)
        42                         -0.2337175              -6.3598
        43                         -0.1905492              -5.1851
        44                         -0.1475723              -4.0156
        45                         -0.0608453              -1.6557
        46                         -0.0597959              -1.6271
        47                         -0.0045248              -0.1231
        48                          0.0321637               0.8752
        49                          0.0617685               1.6808
        50                          0.0623650               1.6970
        51                          0.0629411               1.7127
       ...                                ...                  ...
        79                          0.6922949              18.8383
      -------------------------------------------------------------
                  HL-Gap            0.1149044 Eh            3.1267 eV

     #   Z          covCN         q      C6AA      α(0)
     1   7 N        2.666    -0.307    27.905     7.845
     2   6 C        3.731    -0.003    20.731     6.499
     3   6 C        3.691     0.075    19.499     6.319
     4   8 O        1.705    -0.278    18.620     5.826
     5   6 C        2.861     0.135    25.057     8.205
     6   6 C        2.913    -0.073    29.830     8.956
     7   6 C        2.916    -0.032    28.804     8.801
     8   6 C        2.917    -0.048    29.187     8.859
     9   6 C        2.987     0.013    27.725     8.637
    10   6 C        2.920    -0.035    28.866     8.810
    11   6 C        2.916    -0.029    28.718     8.788
    12   6 C        2.917    -0.031    28.778     8.797
    13   6 C        2.918    -0.030    28.741     8.791
    14   6 C        2.987    -0.005    28.135     8.701
    15  17 Cl       0.839    -0.466   114.448    16.366
    16   1 H        0.876     0.332     0.624     1.237
    17   1 H        0.860     0.180     1.212     1.725
    18   1 H        0.860     0.167     1.290     1.779
    19   1 H        0.924     0.072     2.064     2.247
    20   1 H        0.924     0.060     2.203     2.321
    21   1 H        0.924     0.037     2.491     2.468
    22   1 H        0.923     0.031     2.578     2.511
    23   1 H        0.926     0.028     2.610     2.526
    24   1 H        0.926     0.033     2.539     2.492
    25   1 H        0.926     0.034     2.525     2.485
    26   1 H        0.926     0.034     2.532     2.488
    27   1 H        0.926     0.033     2.551     2.497
    28   1 H        0.926     0.033     2.549     2.497
    29   1 H        0.926     0.041     2.431     2.438

Wiberg/Mayer (AO) data.
largest (>0.10) Wiberg bond orders for each atom

     #   Z sym  total        # sym  WBO       # sym  WBO       # sym  WBO
 ---------------------------------------------------------------------------
     1   7 N    3.220 --     2 C    1.020    18 H    0.958    17 H    0.953
                            16 H    0.180
     2   6 C    3.978 --     1 N    1.020     3 C    0.992    20 H    0.972
                            19 H    0.971
     3   6 C    3.951 --     2 C    0.992     4 O    0.974    21 H    0.965
                            22 H    0.965
     4   8 O    2.226 --     5 C    1.051     3 C    0.974
     5   6 C    3.931 --     6 C    1.482    14 C    1.208     4 O    1.051
                             8 C    0.101
     6   6 C    3.986 --     5 C    1.482     7 C    1.319    23 H    0.966
     7   6 C    3.992 --     8 C    1.561     6 C    1.319    24 H    0.971
     8   6 C    3.991 --     7 C    1.561     9 C    1.268    25 H    0.968
                             5 C    0.101
     9   6 C    3.990 --    10 C    1.283     8 C    1.268    14 C    1.263
    10   6 C    3.991 --    11 C    1.553     9 C    1.283    26 H    0.968
                            13 C    0.118
    11   6 C    3.992 --    10 C    1.553    12 C    1.328    27 H    0.971
    12   6 C    3.992 --    13 C    1.547    11 C    1.328    28 H    0.971
    13   6 C    3.992 --    12 C    1.547    14 C    1.295    29 H    0.967
                            10 C    0.118
    14   6 C    3.988 --    13 C    1.295     9 C    1.263     5 C    1.208
    15  17 Cl   0.784 --    16 H    0.707
    16   1 H    0.890 --    15 Cl   0.707     1 N    0.180
    17   1 H    0.967 --     1 N    0.953
    18   1 H    0.972 --     1 N    0.958
    19   1 H    0.995 --     2 C    0.971
    20   1 H    0.996 --     2 C    0.972
    21   1 H    0.998 --     3 C    0.965
    22   1 H    0.999 --     3 C    0.965
    23   1 H    0.999 --     6 C    0.966
    24   1 H    0.998 --     7 C    0.971
    25   1 H    0.998 --     8 C    0.968
    26   1 H    0.998 --    10 C    0.968
    27   1 H    0.998 --    11 C    0.971
    28   1 H    0.998 --    12 C    0.971
    29   1 H    0.998 --    13 C    0.967
 ---------------------------------------------------------------------------

molecular dipole:
                 x           y           z       tot (Debye)
 q only:        0.533      -1.670       0.449
   full:        0.381      -1.748       0.403       4.662

           -------------------------------------------------
          | TOTAL ENERGY              -44.361331693946 Eh   |
          | GRADIENT NORM               0.000506572848 Eh/α |
          | HOMO-LUMO GAP               3.126708142392 eV   |
           -------------------------------------------------

 * finished run on 2023/01/23 at 21:02:23.647
