   * xtb version 6.5.1 (fef0646) compiled by 'conda@b96dff2e9fd6' on 2023-01-04
          program call               : xtb init.xyz --opt -c 0 -u 0 -P 16 --alpb water

   ID    Z sym.   atoms
    1    7 N      1
    2    6 C      2, 3, 5-14
    3    8 O      4
    4   17 Cl     15
    5    1 H      16-29

      * Solvation model:               ALPB
        Solvent                        water
        Solvent mass                       1.8000E+01 g/mol
          :  Hamiltonian                  GFN2-xTB          :
 * total energy  :   -44.3943294 Eh     change       -0.9224550E-09 Eh
 * total energy  :   -44.4003885 Eh     change       -0.6059120E-02 Eh
 * total energy  :   -44.4020335 Eh     change       -0.1644988E-02 Eh
 * total energy  :   -44.4024224 Eh     change       -0.3889695E-03 Eh
 * total energy  :   -44.4026829 Eh     change       -0.2604158E-03 Eh
 * total energy  :   -44.4028514 Eh     change       -0.1685792E-03 Eh
 * total energy  :   -44.4029885 Eh     change       -0.1371108E-03 Eh
 * total energy  :   -44.4031132 Eh     change       -0.1246511E-03 Eh
 * total energy  :   -44.4031808 Eh     change       -0.6760381E-04 Eh
 * total energy  :   -44.4032431 Eh     change       -0.6228003E-04 Eh
 * total energy  :   -44.4033764 Eh     change       -0.6032116E-04 Eh
 * total energy  :   -44.4034147 Eh     change       -0.3825007E-04 Eh
 * total energy  :   -44.4034428 Eh     change       -0.2811722E-04 Eh
 * total energy  :   -44.4034518 Eh     change       -0.9076811E-05 Eh
 * total energy  :   -44.4034595 Eh     change       -0.7630551E-05 Eh
 * total energy  :   -44.4034660 Eh     change       -0.6572791E-05 Eh
 * total energy  :   -44.4034731 Eh     change       -0.7054252E-05 Eh
 * total energy  :   -44.4034793 Eh     change       -0.6224190E-05 Eh
 * total energy  :   -44.4034839 Eh     change       -0.4525413E-05 Eh
   *** GEOMETRY OPTIMIZATION CONVERGED AFTER 20 ITERATIONS ***

 final structure:
================
29
 xtb: 6.5.1 (fef0646)
N            1.85925164736111        0.57996395100113        0.31020356508572
C            2.30560702981423        0.40309378226754        1.70366312812512
C            3.76085414526077       -0.06941412878449        1.73120026464725
O            4.64123584920659        0.88419911987470        1.15726811933191
C            5.17138904331545        1.87852412228739        1.92793862162495
C            4.79385234488288        2.16762198975505        3.21574880217355
C            5.40612775181720        3.21960971311928        3.91436593935969
C            6.37878249088185        3.98033283978100        3.33400061574261
C            6.79457227624050        3.71225928830455        2.01225667193127
C            7.80233110784273        4.46929866056430        1.37930765436837
C            8.19971035720122        4.18327627176748        0.10290551831410
C            7.60858969066532        3.12308200389654       -0.59968313510970
C            6.62528559673458        2.37241642281886       -0.01671538734074
C            6.19223968042622        2.64808337340749        1.29569049455573
Cl          -0.96035358591594        1.70318882304741        0.37403187946088
H            0.88642694700209        0.98563543288451        0.28977898689270
H            1.83662881431085       -0.31209953334060       -0.19035599353487
H            2.48802688136747        1.22434132338755       -0.17790063590177
H            1.66823852206042       -0.32865660735027        2.19668568797806
H            2.19883544990241        1.35779458943833        2.21787363864626
H            3.87802421913824       -0.95739634954505        1.10530362111985
H            4.06427851926828       -0.31982311384553        2.75058420809262
H            4.02468512736895        1.60532544393237        3.71963309389606
H            5.08672600739872        3.42117673991741        4.92592915458905
H            6.84374330708912        4.79223227890650        3.87299958750870
H            8.25662083995169        5.28212518894284        1.92762600282070
H            8.97339463892670        4.76941180857074       -0.37073391354374
H            7.93776489088808        2.90442925776574       -1.60434903336255
H            6.17129040959181        1.55161730722716       -0.54851715747220

          :  Hamiltonian                  GFN2-xTB          :
         :: total energy             -44.403483853805 Eh    ::
         :: gradient norm              0.000392977834 Eh/a0 ::
         :: HOMO-LUMO gap              3.105076544433 eV    ::
         :: SCC energy               -45.044886264872 Eh    ::
         :: -> dispersion             -0.026399651524 Eh    ::
         :: -> Gsolv                  -0.074271983330 Eh    ::
         :: repulsion energy           0.641287808526 Eh    ::

    * Orbital Energies and Occupations

         #    Occupation            Energy/Eh            Energy/eV
      -------------------------------------------------------------
         1        2.0000           -1.0068117             -27.3967
       ...           ...                  ...                  ...
        28        2.0000           -0.4624873             -12.5849
        29        2.0000           -0.4608638             -12.5407
        30        2.0000           -0.4499441             -12.2436
        31        2.0000           -0.4436614             -12.0726
        32        2.0000           -0.4411920             -12.0054
        33        2.0000           -0.4152533             -11.2996
        34        2.0000           -0.4118932             -11.2082
        35        2.0000           -0.4093745             -11.1396
        36        2.0000           -0.4037653             -10.9870
        37        2.0000           -0.4006164             -10.9013
        38        2.0000           -0.4005128             -10.8985
        39        2.0000           -0.3976482             -10.8206
        40        2.0000           -0.3656094              -9.9487 (HOMO)
        41                         -0.2514999              -6.8437 (LUMO)
        42                         -0.2255518              -6.1376
        43                         -0.1826804              -4.9710
        44                         -0.1395852              -3.7983
        45                         -0.0523664              -1.4250
        46                         -0.0289018              -0.7865
        47                          0.0125960               0.3428
        48                          0.0784000               2.1334
        49                          0.0843091               2.2942
        50                          0.1004563               2.7336
        51                          0.1124903               3.0610
       ...                                ...                  ...
        79                          0.7012766              19.0827
      -------------------------------------------------------------
                  HL-Gap            0.1141095 Eh            3.1051 eV

     #   Z          covCN         q      C6AA      α(0)
     1   7 N        3.484    -0.163    24.507     7.353
     2   6 C        3.730    -0.031    21.224     6.576
     3   6 C        3.688     0.047    19.968     6.396
     4   8 O        1.704    -0.282    18.680     5.835
     5   6 C        2.856     0.131    25.122     8.215
     6   6 C        2.913    -0.079    29.979     8.978
     7   6 C        2.917    -0.038    28.957     8.824
     8   6 C        2.916    -0.053    29.329     8.881
     9   6 C        2.987     0.009    27.817     8.652
    10   6 C        2.920    -0.041    29.008     8.832
    11   6 C        2.916    -0.035    28.873     8.811
    12   6 C        2.917    -0.038    28.940     8.822
    13   6 C        2.918    -0.038    28.940     8.822
    14   6 C        2.987    -0.009    28.231     8.716
    15  17 Cl       0.064    -0.944   124.743    16.998
    16   1 H        0.920     0.299     0.711     1.319
    17   1 H        0.859     0.302     0.707     1.317
    18   1 H        0.859     0.297     0.723     1.332
    19   1 H        0.925     0.114     1.664     2.017
    20   1 H        0.925     0.103     1.758     2.073
    21   1 H        0.924     0.101     1.777     2.085
    22   1 H        0.924     0.074     2.041     2.234
    23   1 H        0.926     0.049     2.329     2.387
    24   1 H        0.926     0.036     2.509     2.477
    25   1 H        0.926     0.031     2.578     2.511
    26   1 H        0.926     0.032     2.559     2.502
    27   1 H        0.926     0.032     2.552     2.498
    28   1 H        0.926     0.037     2.491     2.468
    29   1 H        0.926     0.057     2.236     2.338

Wiberg/Mayer (AO) data.
largest (>0.10) Wiberg bond orders for each atom

     #   Z sym  total        # sym  WBO       # sym  WBO       # sym  WBO
 ---------------------------------------------------------------------------
     1   7 N    3.647 --     2 C    0.977    18 H    0.896    17 H    0.894
                            16 H    0.825
     2   6 C    3.934 --     3 C    1.000     1 N    0.977    20 H    0.964
                            19 H    0.964
     3   6 C    3.933 --     2 C    1.000     4 O    0.964    22 H    0.961
                            21 H    0.959
     4   8 O    2.227 --     5 C    1.059     3 C    0.964
     5   6 C    3.940 --     6 C    1.482    14 C    1.209     4 O    1.059
                             8 C    0.101
     6   6 C    3.986 --     5 C    1.482     7 C    1.321    23 H    0.963
     7   6 C    3.992 --     8 C    1.559     6 C    1.321    24 H    0.971
     8   6 C    3.989 --     7 C    1.559     9 C    1.269    25 H    0.969
                             5 C    0.101
     9   6 C    3.990 --    10 C    1.282     8 C    1.269    14 C    1.263
    10   6 C    3.991 --    11 C    1.553     9 C    1.282    26 H    0.969
                            13 C    0.118
    11   6 C    3.992 --    10 C    1.553    12 C    1.327    27 H    0.971
    12   6 C    3.991 --    13 C    1.547    11 C    1.327    28 H    0.971
    13   6 C    3.991 --    12 C    1.547    14 C    1.295    29 H    0.966
                            10 C    0.118
    14   6 C    3.989 --    13 C    1.295     9 C    1.263     5 C    1.209
    15  17 Cl   0.109
    16   1 H    0.910 --     1 N    0.825
    17   1 H    0.909 --     1 N    0.894
    18   1 H    0.912 --     1 N    0.896
    19   1 H    0.987 --     2 C    0.964
    20   1 H    0.989 --     2 C    0.964
    21   1 H    0.989 --     3 C    0.959
    22   1 H    0.994 --     3 C    0.961
    23   1 H    0.997 --     6 C    0.963
    24   1 H    0.998 --     7 C    0.971
    25   1 H    0.999 --     8 C    0.969
    26   1 H    0.999 --    10 C    0.969
    27   1 H    0.998 --    11 C    0.971
    28   1 H    0.998 --    12 C    0.971
    29   1 H    0.996 --    13 C    0.966
 ---------------------------------------------------------------------------

molecular dipole:
                 x           y           z       tot (Debye)
 q only:        4.661      -2.539       0.272
   full:        4.023      -2.163       0.321      11.638

           -------------------------------------------------
          | TOTAL ENERGY              -44.403483853805 Eh   |
          | GRADIENT NORM               0.000392977834 Eh/α |
          | HOMO-LUMO GAP               3.105076544433 eV   |
           -------------------------------------------------

 * finished run on 2023/01/24 at 16:50:34.387
