   * xtb version 6.5.1 (fef0646) compiled by 'conda@b96dff2e9fd6' on 2023-01-04
          program call               : xtb init.xyz --opt -c 1 -u 0 -P 16

   ID    Z sym.   atoms
    1    7 N      1
    2    6 C      2, 3, 5-14
    3    8 O      4
    4    1 H      15-28

          :  Hamiltonian                  GFN2-xTB          :
 * total energy  :   -39.3695678 Eh     change       -0.6736229E-09 Eh
 * total energy  :   -39.3741423 Eh     change       -0.4574500E-02 Eh
 * total energy  :   -39.3755683 Eh     change       -0.1425953E-02 Eh
 * total energy  :   -39.3761989 Eh     change       -0.6306495E-03 Eh
 * total energy  :   -39.3768061 Eh     change       -0.6071275E-03 Eh
 * total energy  :   -39.3773910 Eh     change       -0.5849060E-03 Eh
 * total energy  :   -39.3779598 Eh     change       -0.5687837E-03 Eh
 * total energy  :   -39.3784123 Eh     change       -0.4524974E-03 Eh
 * total energy  :   -39.3786763 Eh     change       -0.2640138E-03 Eh
 * total energy  :   -39.3788182 Eh     change       -0.1419325E-03 Eh
 * total energy  :   -39.3793301 Eh     change       -0.7046696E-05 Eh
 * total energy  :   -39.3793451 Eh     change       -0.1506213E-04 Eh
 * total energy  :   -39.3793559 Eh     change       -0.1072829E-04 Eh
 * total energy  :   -39.3793639 Eh     change       -0.8031706E-05 Eh
 * total energy  :   -39.3793710 Eh     change       -0.7058272E-05 Eh
 * total energy  :   -39.3793779 Eh     change       -0.6923907E-05 Eh
 * total energy  :   -39.3793844 Eh     change       -0.6559617E-05 Eh
 * total energy  :   -39.3793901 Eh     change       -0.5668248E-05 Eh
 * total energy  :   -39.3793946 Eh     change       -0.4507559E-05 Eh
   *** GEOMETRY OPTIMIZATION CONVERGED AFTER 30 ITERATIONS ***

 final structure:
================
28
 xtb: 6.5.1 (fef0646)
N            2.76562998633742        0.60762164151535        0.42674769205485
C            2.84180692310079       -0.15699099806892       -0.84955756603055
C            3.27115693105846       -1.57613878387165       -0.46327172625577
O            4.31283168322244       -1.38153760816286        0.46836421244770
C            4.92954432613578       -2.49370718723072        1.04802234775534
C            4.57991317156558       -3.78546127992494        0.77100873607220
C            5.24586197880148       -4.84185139318916        1.41525224712161
C            6.23699932414723       -4.59335458279286        2.31843007731796
C            6.61991445844041       -3.26859211488574        2.61857173523797
C            7.64692658142119       -2.98333932447303        3.54199457684054
C            8.00960072211826       -1.69388760813673        3.81419830086589
C            7.36378692987089       -0.62890262880920        3.16996892634859
C            6.36258433917047       -0.86977063308594        2.27046539245027
C            5.96193018753054       -2.18889835179689        1.97367885441267
H            2.88973736705369        1.61668171169161        0.30395351357350
H            3.56113479414468        0.18768035688409        0.97373784065926
H            1.88844423745892        0.43018603321274        0.92856811660986
H            3.61232018224186        0.29602360020676       -1.47485635857980
H            1.89144654413067       -0.15007655463984       -1.38032541142040
H            3.61550146893186       -2.12269592471809       -1.34677868623178
H            2.43887772548167       -2.12829754468274       -0.00567446341132
H            3.80317020085241       -4.02287054977343        0.06157932768617
H            4.95538955850140       -5.85346966064378        1.18025260956363
H            6.74582831259976       -5.40551397215205        2.81368322287770
H            8.14458636249825       -3.80848124667928        4.02853220867583
H            8.79772675704302       -1.48546878438132        4.52089688292307
H            7.66625222394367        0.38448396390674        3.38637930297332
H            5.88366672219705       -0.04440057531770        1.76214808746235

          :  Hamiltonian                  GFN2-xTB          :
         :: total energy             -39.379394619277 Eh    ::
         :: gradient norm              0.000301807058 Eh/a0 ::
         :: HOMO-LUMO gap              3.206706204829 eV    ::
         :: SCC energy               -40.018372325784 Eh    ::
         :: -> dispersion             -0.024682002382 Eh    ::
         :: repulsion energy           0.638898490771 Eh    ::

    * Orbital Energies and Occupations

         #    Occupation            Energy/Eh            Energy/eV
      -------------------------------------------------------------
         1        2.0000           -0.8913097             -24.2538
       ...           ...                  ...                  ...
        24        2.0000           -0.6064672             -16.5028
        25        2.0000           -0.5881436             -16.0042
        26        2.0000           -0.5821346             -15.8407
        27        2.0000           -0.5810383             -15.8109
        28        2.0000           -0.5720786             -15.5671
        29        2.0000           -0.5573945             -15.1675
        30        2.0000           -0.5492098             -14.9448
        31        2.0000           -0.5431751             -14.7805
        32        2.0000           -0.5198526             -14.1459
        33        2.0000           -0.5173709             -14.0784
        34        2.0000           -0.5156222             -14.0308
        35        2.0000           -0.5007462             -13.6260
        36        2.0000           -0.4752724             -12.9328 (HOMO)
        37                         -0.3574281              -9.7261 (LUMO)
        38                         -0.3290949              -8.9551
        39                         -0.2880892              -7.8393
        40                         -0.2565899              -6.9822
        41                         -0.2426534              -6.6029
        42                         -0.1596441              -4.3441
        43                         -0.1557316              -4.2377
        44                         -0.1417228              -3.8565
        45                         -0.1015194              -2.7625
        46                         -0.0907167              -2.4685
        47                         -0.0590704              -1.6074
       ...                                ...                  ...
        70                          0.5949309              16.1889
      -------------------------------------------------------------
                  HL-Gap            0.1178443 Eh            3.2067 eV

     #   Z          covCN         q      C6AA      α(0)
     1   7 N        3.485    -0.141    24.035     7.281
     2   6 C        3.731    -0.036    21.316     6.590
     3   6 C        3.689     0.059    19.772     6.364
     4   8 O        1.704    -0.308    19.125     5.905
     5   6 C        2.856     0.119    25.378     8.257
     6   6 C        2.913    -0.065    29.616     8.924
     7   6 C        2.918    -0.029    28.717     8.788
     8   6 C        2.917    -0.036    28.903     8.816
     9   6 C        2.988     0.019    27.584     8.615
    10   6 C        2.920    -0.027    28.683     8.783
    11   6 C        2.916    -0.023    28.567     8.765
    12   6 C        2.916    -0.025    28.636     8.775
    13   6 C        2.917    -0.036    28.884     8.813
    14   6 C        2.985    -0.005    28.130     8.700
    15   1 H        0.859     0.267     0.822     1.420
    16   1 H        0.857     0.309     0.688     1.300
    17   1 H        0.859     0.266     0.824     1.422
    18   1 H        0.924     0.120     1.616     1.988
    19   1 H        0.925     0.110     1.693     2.035
    20   1 H        0.924     0.086     1.923     2.169
    21   1 H        0.923     0.062     2.177     2.307
    22   1 H        0.926     0.037     2.491     2.468
    23   1 H        0.926     0.054     2.270     2.356
    24   1 H        0.926     0.057     2.234     2.337
    25   1 H        0.926     0.054     2.273     2.357
    26   1 H        0.926     0.053     2.288     2.366
    27   1 H        0.926     0.044     2.397     2.421
    28   1 H        0.926     0.016     2.797     2.615

Wiberg/Mayer (AO) data.
largest (>0.10) Wiberg bond orders for each atom

     #   Z sym  total        # sym  WBO       # sym  WBO       # sym  WBO
 ---------------------------------------------------------------------------
     1   7 N    3.663 --     2 C    0.949    15 H    0.916    17 H    0.915
                            16 H    0.838
     2   6 C    3.908 --     3 C    1.000    19 H    0.969    18 H    0.965
                             1 N    0.949
     3   6 C    3.950 --     2 C    1.000     4 O    0.987    21 H    0.964
                            20 H    0.959
     4   8 O    2.189 --     3 C    0.987     5 C    0.966
     5   6 C    3.906 --     6 C    1.512    14 C    1.227     4 O    0.966
                             8 C    0.105
     6   6 C    3.988 --     5 C    1.512     7 C    1.309    22 H    0.965
     7   6 C    3.990 --     8 C    1.565     6 C    1.309    23 H    0.969
     8   6 C    3.990 --     7 C    1.565     9 C    1.272    24 H    0.966
                             5 C    0.105
     9   6 C    3.990 --    10 C    1.283     8 C    1.272    14 C    1.255
    10   6 C    3.990 --    11 C    1.554     9 C    1.283    25 H    0.967
                            13 C    0.118
    11   6 C    3.991 --    10 C    1.554    12 C    1.326    26 H    0.969
    12   6 C    3.991 --    13 C    1.550    11 C    1.326    27 H    0.970
    13   6 C    3.992 --    12 C    1.550    14 C    1.288    28 H    0.967
                            10 C    0.118
    14   6 C    3.987 --    13 C    1.288     9 C    1.255     5 C    1.227
    15   1 H    0.929 --     1 N    0.916
    16   1 H    0.904 --     1 N    0.838
    17   1 H    0.929 --     1 N    0.915
    18   1 H    0.986 --     2 C    0.965
    19   1 H    0.987 --     2 C    0.969
    20   1 H    0.992 --     3 C    0.959
    21   1 H    0.996 --     3 C    0.964
    22   1 H    0.998 --     6 C    0.965
    23   1 H    0.996 --     7 C    0.969
    24   1 H    0.996 --     8 C    0.966
    25   1 H    0.997 --    10 C    0.967
    26   1 H    0.996 --    11 C    0.969
    27   1 H    0.998 --    12 C    0.970
    28   1 H    0.999 --    13 C    0.967
 ---------------------------------------------------------------------------

molecular dipole:
                 x           y           z       tot (Debye)
 q only:        6.006      -0.205       0.921
   full:        5.842      -0.150       0.909      15.033

           -------------------------------------------------
          | TOTAL ENERGY              -39.379394619277 Eh   |
          | GRADIENT NORM               0.000301807058 Eh/α |
          | HOMO-LUMO GAP               3.206706204829 eV   |
           -------------------------------------------------

 * finished run on 2023/01/23 at 14:27:28.474
