   * xtb version 6.5.1 (fef0646) compiled by 'conda@b96dff2e9fd6' on 2023-01-04
          program call               : xtb init.xyz --opt -c 0 -u 0 -P 16 --input xtb.inp

   ID    Z sym.   atoms
    1    7 N      1
    2    6 C      2-9
    3   17 Cl     10
    4    1 H      11-26

          :  Hamiltonian                  GFN2-xTB          :
 * total energy  :   -32.7200640 Eh     change       -0.1814655E-09 Eh
 * total energy  :   -32.7226841 Eh     change       -0.2620143E-02 Eh
 * total energy  :   -32.7276627 Eh     change       -0.4978563E-02 Eh
 * total energy  :   -32.7288094 Eh     change       -0.1146691E-02 Eh
 * total energy  :   -32.7306146 Eh     change       -0.1805205E-02 Eh
 * total energy  :   -32.7339767 Eh     change       -0.3362101E-02 Eh
 * total energy  :   -32.7383636 Eh     change       -0.4386890E-02 Eh
 * total energy  :   -32.7457988 Eh     change       -0.7435240E-02 Eh
 * total energy  :   -32.7482841 Eh     change       -0.2485290E-02 Eh
 * total energy  :   -32.7494112 Eh     change       -0.1127043E-02 Eh
 * total energy  :   -32.7546812 Eh     change       -0.1429255E-03 Eh
 * total energy  :   -32.7548005 Eh     change       -0.1192407E-03 Eh
 * total energy  :   -32.7549146 Eh     change       -0.1141491E-03 Eh
 * total energy  :   -32.7549453 Eh     change       -0.3069328E-04 Eh
 * total energy  :   -32.7549650 Eh     change       -0.1968970E-04 Eh
 * total energy  :   -32.7549751 Eh     change       -0.1009594E-04 Eh
 * total energy  :   -32.7549850 Eh     change       -0.9900975E-05 Eh
 * total energy  :   -32.7549882 Eh     change       -0.3211701E-05 Eh
 * total energy  :   -32.7549920 Eh     change       -0.3779905E-05 Eh
   *** GEOMETRY OPTIMIZATION CONVERGED AFTER 37 ITERATIONS ***

 final structure:
================
26
 xtb: 6.5.1 (fef0646)
N            2.85709064497408       -1.32222433094138       -1.48173628805161
C            2.42684896989677       -0.04256323150434       -2.04286338085691
C            3.03351491718253        1.10462328577384       -1.23032870087252
C            4.54117901685277        1.02466766643178       -1.18164310400759
C            5.28269605620628        1.12177516361694       -2.27780847828687
C            6.77469297964255        0.98871958677400       -2.30169208169540
C            7.29635798809950        0.35696458028328       -1.01467836614868
C            6.65011084770577        1.04265716666851        0.18289496643355
C            5.14423103951069        0.79444644182493        0.17515440229654
Cl           2.20317285458954       -1.51338771014314        1.35759074759792
H            2.43113533276742       -2.10347602316827       -1.96712117434242
H            2.49841245261169       -1.40275391211747        0.00816853330057
H            3.86698736615622       -1.40116722551325       -1.54690247353965
H            1.33720505970870        0.00095431979422       -1.98220849271072
H            2.71822666816120        0.05463864527067       -3.09745429070164
H            2.63546757942070        1.05681599105271       -0.21763009524378
H            2.72038652593729        2.04835938501886       -1.68149427683382
H            4.81545123346423        1.31854167078878       -3.23472801610279
H            7.21806467627539        1.98194450137654       -2.43235999706898
H            7.07428909943025        0.39101781693106       -3.16735849860906
H            8.38316508025967        0.44692037252809       -0.96765943917393
H            7.04635900524941       -0.70646801770903       -0.99902941129128
H            6.84238533885650        2.11617446052645        0.12355343436953
H            7.08255262137926        0.67376021983940        1.11454310959508
H            4.65637237298006        1.45312967017598        0.89748695857046
H            4.92858427269083       -0.23054049357945        0.49294441337569

          :  Hamiltonian                  GFN2-xTB          :
         :: total energy             -32.754991983903 Eh    ::
         :: gradient norm              0.000626230448 Eh/a0 ::
         :: HOMO-LUMO gap              5.011508615003 eV    ::
         :: SCC energy               -33.173311111490 Eh    ::
         :: -> dispersion             -0.020893877574 Eh    ::
         :: repulsion energy           0.418077707401 Eh    ::

    * Orbital Energies and Occupations

         #    Occupation            Energy/Eh            Energy/eV
      -------------------------------------------------------------
         1        2.0000           -1.0143643             -27.6023
       ...           ...                  ...                  ...
        18        2.0000           -0.4820516             -13.1173
        19        2.0000           -0.4793241             -13.0431
        20        2.0000           -0.4660741             -12.6825
        21        2.0000           -0.4626831             -12.5902
        22        2.0000           -0.4577145             -12.4550
        23        2.0000           -0.4506664             -12.2633
        24        2.0000           -0.4300459             -11.7021
        25        2.0000           -0.4206165             -11.4456
        26        2.0000           -0.4127747             -11.2322
        27        2.0000           -0.3965728             -10.7913
        28        2.0000           -0.3916434             -10.6572
        29        2.0000           -0.3914755             -10.6526
        30        2.0000           -0.3804441             -10.3524 (HOMO)
        31                         -0.1962745              -5.3409 (LUMO)
        32                         -0.0538323              -1.4649
        33                          0.0229217               0.6237
        34                          0.0615341               1.6744
        35                          0.0706196               1.9217
        36                          0.0710217               1.9326
        37                          0.0763856               2.0786
        38                          0.0766224               2.0850
        39                          0.0879730               2.3939
        40                          0.0952812               2.5927
        41                          0.1060286               2.8852
       ...                                ...                  ...
        61                          0.6381314              17.3644
      -------------------------------------------------------------
                  HL-Gap            0.1841696 Eh            5.0115 eV

     #   Z          covCN         q      C6AA      α(0)
     1   7 N        2.723    -0.300    27.716     7.819
     2   6 C        3.732     0.010    20.505     6.463
     3   6 C        3.809    -0.082    22.058     6.685
     4   6 C        2.944    -0.000    28.039     8.685
     5   6 C        2.898    -0.057    29.418     8.893
     6   6 C        3.809    -0.054    21.532     6.605
     7   6 C        3.807    -0.055    21.562     6.610
     8   6 C        3.807    -0.056    21.573     6.612
     9   6 C        3.811    -0.067    21.780     6.643
    10  17 Cl       0.835    -0.501   115.694    16.455
    11   1 H        0.860     0.165     1.304     1.789
    12   1 H        0.926     0.332     0.622     1.233
    13   1 H        0.860     0.175     1.245     1.748
    14   1 H        0.924     0.050     2.325     2.385
    15   1 H        0.923     0.027     2.630     2.536
    16   1 H        0.925     0.065     2.141     2.288
    17   1 H        0.924     0.048     2.348     2.396
    18   1 H        0.925     0.017     2.777     2.606
    19   1 H        0.924     0.037     2.484     2.465
    20   1 H        0.924     0.030     2.585     2.514
    21   1 H        0.924     0.027     2.632     2.537
    22   1 H        0.924     0.029     2.601     2.522
    23   1 H        0.924     0.034     2.536     2.490
    24   1 H        0.924     0.030     2.584     2.514
    25   1 H        0.924     0.044     2.397     2.421
    26   1 H        0.924     0.054     2.276     2.359

Wiberg/Mayer (AO) data.
largest (>0.10) Wiberg bond orders for each atom

     #   Z sym  total        # sym  WBO       # sym  WBO       # sym  WBO
 ---------------------------------------------------------------------------
     1   7 N    3.261 --     2 C    1.005    11 H    0.959    13 H    0.952
                            12 H    0.226
     2   6 C    3.974 --     1 N    1.005     3 C    0.995    14 H    0.975
                            15 H    0.972
     3   6 C    3.992 --     4 C    1.002     2 C    0.995    16 H    0.973
                            17 H    0.965
     4   6 C    3.987 --     5 C    1.883     9 C    1.014     3 C    1.002
     5   6 C    3.988 --     4 C    1.883     6 C    1.023    18 H    0.966
     6   6 C    3.999 --     5 C    1.023     7 C    1.007    20 H    0.968
                            19 H    0.959
     7   6 C    3.999 --     8 C    1.009     6 C    1.007    22 H    0.979
                            21 H    0.978
     8   6 C    3.998 --     7 C    1.009     9 C    1.007    23 H    0.978
                            24 H    0.978
     9   6 C    3.997 --     4 C    1.014     8 C    1.007    25 H    0.964
                            26 H    0.956
    10  17 Cl   0.753 --    12 H    0.658
    11   1 H    0.973 --     1 N    0.959
    12   1 H    0.890 --    10 Cl   0.658     1 N    0.226
    13   1 H    0.970 --     1 N    0.952
    14   1 H    0.997 --     2 C    0.975
    15   1 H    0.999 --     2 C    0.972
    16   1 H    0.996 --     3 C    0.973
    17   1 H    0.998 --     3 C    0.965
    18   1 H    1.000 --     5 C    0.966
    19   1 H    0.998 --     6 C    0.959
    20   1 H    0.999 --     6 C    0.968
    21   1 H    0.999 --     7 C    0.978
    22   1 H    0.999 --     7 C    0.979
    23   1 H    0.999 --     8 C    0.978
    24   1 H    0.999 --     8 C    0.978
    25   1 H    0.998 --     9 C    0.964
    26   1 H    0.997 --     9 C    0.956
 ---------------------------------------------------------------------------

molecular dipole:
                 x           y           z       tot (Debye)
 q only:        0.529       0.318      -1.752
   full:        0.502       0.156      -1.672       4.456

           -------------------------------------------------
          | TOTAL ENERGY              -32.754991983903 Eh   |
          | GRADIENT NORM               0.000626230448 Eh/α |
          | HOMO-LUMO GAP               5.011508615003 eV   |
           -------------------------------------------------

 * finished run on 2023/01/23 at 19:46:22.878
