   * xtb version 6.5.1 (fef0646) compiled by 'conda@b96dff2e9fd6' on 2023-01-04
          program call               : xtb init.xyz --opt -c 1 -u 0 -P 16 --alpb water

   ID    Z sym.   atoms
    1    7 N      1
    2    6 C      2, 3, 5-24
    3    8 O      4
    4    1 H      25-42

      * Solvation model:               ALPB
        Solvent                        water
        Solvent mass                       1.8000E+01 g/mol
          :  Hamiltonian                  GFN2-xTB          :
 * total energy  :   -62.9725949 Eh     change       -0.1585789E-08 Eh
 * total energy  :   -62.9793261 Eh     change       -0.6731189E-02 Eh
 * total energy  :   -62.9812412 Eh     change       -0.1915049E-02 Eh
 * total energy  :   -62.9818018 Eh     change       -0.5606156E-03 Eh
 * total energy  :   -62.9825506 Eh     change       -0.7487904E-03 Eh
 * total energy  :   -62.9832134 Eh     change       -0.6628534E-03 Eh
 * total energy  :   -62.9837824 Eh     change       -0.5689856E-03 Eh
 * total energy  :   -62.9842454 Eh     change       -0.4629478E-03 Eh
 * total energy  :   -62.9845401 Eh     change       -0.2947177E-03 Eh
 * total energy  :   -62.9847167 Eh     change       -0.1766327E-03 Eh
 * total energy  :   -62.9851041 Eh     change       -0.2112527E-04 Eh
 * total energy  :   -62.9851235 Eh     change       -0.1941582E-04 Eh
 * total energy  :   -62.9851410 Eh     change       -0.1746422E-04 Eh
 * total energy  :   -62.9851574 Eh     change       -0.1638822E-04 Eh
 * total energy  :   -62.9851696 Eh     change       -0.1226722E-04 Eh
 * total energy  :   -62.9851783 Eh     change       -0.8695869E-05 Eh
 * total energy  :   -62.9851863 Eh     change       -0.7993453E-05 Eh
 * total energy  :   -62.9851925 Eh     change       -0.6214333E-05 Eh
 * total energy  :   -62.9851968 Eh     change       -0.4279447E-05 Eh
   *** GEOMETRY OPTIMIZATION CONVERGED AFTER 25 ITERATIONS ***

 final structure:
================
42
 xtb: 6.5.1 (fef0646)
N            2.16613522000523        0.69880126025520        0.29177557830221
C            2.80707584580489       -0.33899118400302       -0.54726842297950
C            3.42115913981692       -1.40529274527147        0.35212447325467
O            4.38291505455710       -0.72862506406454        1.15948489131903
C            5.18149035871943       -1.45359247309146        1.98605545548193
C            5.06492005930852       -2.80656670671529        2.19036723918877
C            5.92991798449685       -3.45933095078177        3.06633816762985
C            6.91422229470706       -2.79295501701637        3.77208337265060
C            7.03063164451863       -1.38636651267672        3.60198804755594
C            7.98901878467312       -0.63004130464645        4.32928971531750
C            8.10589841775570        0.72593403114478        4.07207367715664
C            7.29419394797258        1.36676397957967        3.13888511410256
C            6.33567637767206        0.66326358134539        2.46250756014382
C            6.18050174306248       -0.71741297153573        2.68376640382098
C            7.82831314288867       -3.48230569387966        4.67186634017845
C            7.83755198626597       -4.86082713286539        4.80303270705942
C            8.69648649270355       -5.50855882631190        5.69019975008625
C            9.55486086601427       -4.78523753974496        6.47112887406907
C            9.59649479610963       -3.38093382423317        6.36723743144524
C           10.47691481830256       -2.62823205619412        7.16924442103831
C           10.50993220329043       -1.26547397547391        7.06435357454036
C            9.69202103514436       -0.61087359181665        6.14354730087477
C            8.82177895159893       -1.30366937345651        5.31918031684318
C            8.74252775123086       -2.71716760588208        5.44574098162079
H            1.87073021757172        1.50359761090699       -0.27204299429778
H            2.85159964366013        1.00766363560324        0.99381719557996
H            1.35033397158800        0.31931853439079        0.78689608525122
H            3.60092026332480        0.11938313657325       -1.13700353192235
H            2.07773757934266       -0.79513710126189       -1.21439083916071
H            3.90272644065460       -2.17677265656002       -0.25574573168032
H            2.66364247142126       -1.87639909930202        0.98881466408075
H            4.31747654308066       -3.39471958402651        1.68415268403161
H            5.79929181499484       -4.52208355030450        3.18536736510920
H            8.84460347970282        1.31705916523509        4.58827317002081
H            7.42949483654368        2.42276507230678        2.96082193963506
H            5.70634571267656        1.15132595534696        1.73823991741316
H            7.17579543300249       -5.47364403093014        4.21304583643817
H            8.67135823355631       -6.58612666321191        5.75900538322896
H           10.21423057832482       -5.27489828828684        7.17284645174747
H           11.11701521138553       -3.14740898739138        7.86760886716158
H           11.17376250917999       -0.68483754048930        7.68793976152899
H            9.75700614336725        0.46395608873853        6.09589080513340

          :  Hamiltonian                  GFN2-xTB          :
         :: total energy             -62.985196824978 Eh    ::
         :: gradient norm              0.000449217312 Eh/a0 ::
         :: HOMO-LUMO gap              1.847043679908 eV    ::
         :: SCC energy               -64.092684207071 Eh    ::
         :: -> dispersion             -0.049898061304 Eh    ::
         :: -> Gsolv                  -0.127760943801 Eh    ::
         :: repulsion energy           1.107621614715 Eh    ::

    * Orbital Energies and Occupations

         #    Occupation            Energy/Eh            Energy/eV
      -------------------------------------------------------------
         1        2.0000           -0.7298753             -19.8609
       ...           ...                  ...                  ...
        46        2.0000           -0.4505755             -12.2608
        47        2.0000           -0.4456474             -12.1267
        48        2.0000           -0.4426610             -12.0454
        49        2.0000           -0.4341411             -11.8136
        50        2.0000           -0.4319865             -11.7549
        51        2.0000           -0.4257267             -11.5846
        52        2.0000           -0.4052926             -11.0286
        53        2.0000           -0.4041451             -10.9973
        54        2.0000           -0.4030382             -10.9672
        55        2.0000           -0.4011745             -10.9165
        56        2.0000           -0.3990898             -10.8598
        57        2.0000           -0.3938243             -10.7165
        58        2.0000           -0.3515195              -9.5653 (HOMO)
        59                         -0.2836419              -7.7183 (LUMO)
        60                         -0.2298027              -6.2533
        61                         -0.2250963              -6.1252
        62                         -0.2240516              -6.0968
        63                         -0.2210084              -6.0139
        64                         -0.1557396              -4.2379
        65                         -0.1540130              -4.1909
        66                         -0.1154136              -3.1406
        67                         -0.0737708              -2.0074
        68                         -0.0546663              -1.4875
        69                         -0.0218154              -0.5936
       ...                                ...                  ...
       114                          0.7386575              20.0999
      -------------------------------------------------------------
                  HL-Gap            0.0678776 Eh            1.8470 eV

     #   Z          covCN         q      C6AA      α(0)
     1   7 N        3.486    -0.154    24.328     7.326
     2   6 C        3.731    -0.045    21.475     6.615
     3   6 C        3.690     0.048    19.945     6.391
     4   8 O        1.704    -0.269    18.458     5.801
     5   6 C        2.862     0.129    25.166     8.223
     6   6 C        2.910    -0.080    29.999     8.981
     7   6 C        2.923    -0.043    29.065     8.841
     8   6 C        2.973    -0.008    28.224     8.714
     9   6 C        2.994    -0.000    28.023     8.684
    10   6 C        2.975     0.003    27.946     8.671
    11   6 C        2.923    -0.039    28.978     8.828
    12   6 C        2.913    -0.038    28.952     8.823
    13   6 C        2.921    -0.042    29.040     8.837
    14   6 C        2.985    -0.010    28.252     8.719
    15   6 C        2.974     0.003    27.955     8.673
    16   6 C        2.923    -0.045    29.106     8.847
    17   6 C        2.913    -0.037    28.921     8.818
    18   6 C        2.921    -0.044    29.085     8.844
    19   6 C        2.986     0.007    27.848     8.656
    20   6 C        2.921    -0.043    29.056     8.840
    21   6 C        2.913    -0.037    28.918     8.818
    22   6 C        2.923    -0.043    29.064     8.841
    23   6 C        2.974     0.002    27.979     8.676
    24   6 C        2.995     0.000    28.015     8.682
    25   1 H        0.859     0.324     0.647     1.260
    26   1 H        0.859     0.307     0.693     1.304
    27   1 H        0.859     0.314     0.674     1.286
    28   1 H        0.925     0.132     1.522     1.929
    29   1 H        0.925     0.131     1.528     1.933
    30   1 H        0.924     0.076     2.017     2.221
    31   1 H        0.924     0.079     1.987     2.204
    32   1 H        0.926     0.054     2.275     2.358
    33   1 H        0.926     0.036     2.497     2.471
    34   1 H        0.926     0.030     2.580     2.512
    35   1 H        0.926     0.042     2.423     2.434
    36   1 H        0.926     0.070     2.082     2.256
    37   1 H        0.926     0.037     2.486     2.466
    38   1 H        0.926     0.030     2.586     2.515
    39   1 H        0.926     0.027     2.630     2.536
    40   1 H        0.926     0.028     2.614     2.529
    41   1 H        0.926     0.030     2.590     2.517
    42   1 H        0.926     0.036     2.504     2.475

Wiberg/Mayer (AO) data.
largest (>0.10) Wiberg bond orders for each atom

     #   Z sym  total        # sym  WBO       # sym  WBO       # sym  WBO
 ---------------------------------------------------------------------------
     1   7 N    3.654 --     2 C    0.976    26 H    0.887    27 H    0.887
                            25 H    0.883
     2   6 C    3.928 --     3 C    1.009     1 N    0.976    29 H    0.961
                            28 H    0.960
     3   6 C    3.931 --     2 C    1.009    30 H    0.962    31 H    0.961
                             4 O    0.954
     4   8 O    2.220 --     5 C    1.073     3 C    0.954
     5   6 C    3.924 --     6 C    1.451    14 C    1.208     4 O    1.073
     6   6 C    3.984 --     5 C    1.451     7 C    1.363    32 H    0.963
     7   6 C    3.970 --     8 C    1.444     6 C    1.363    33 H    0.962
     8   6 C    3.988 --     7 C    1.444     9 C    1.239    15 C    1.102
     9   6 C    3.989 --    14 C    1.267    10 C    1.251     8 C    1.239
    10   6 C    3.988 --    11 C    1.442     9 C    1.251    23 C    1.098
                            13 C    0.101
    11   6 C    3.973 --    10 C    1.442    12 C    1.368    34 H    0.962
    12   6 C    3.990 --    13 C    1.516    11 C    1.368    35 H    0.970
    13   6 C    3.964 --    12 C    1.516    14 C    1.297    36 H    0.964
                            10 C    0.101
    14   6 C    3.987 --    13 C    1.297     9 C    1.267     5 C    1.208
    15   6 C    3.988 --    16 C    1.443    24 C    1.248     8 C    1.102
                            18 C    0.101
    16   6 C    3.967 --    15 C    1.443    17 C    1.361    37 H    0.962
    17   6 C    3.991 --    18 C    1.526    16 C    1.361    38 H    0.970
    18   6 C    3.963 --    17 C    1.526    19 C    1.280    39 H    0.969
                            15 C    0.101
    19   6 C    3.989 --    18 C    1.280    20 C    1.280    24 C    1.257
    20   6 C    3.964 --    21 C    1.528    19 C    1.280    40 H    0.969
                            23 C    0.101
    21   6 C    3.991 --    20 C    1.528    22 C    1.360    41 H    0.970
    22   6 C    3.969 --    23 C    1.445    21 C    1.360    42 H    0.962
    23   6 C    3.988 --    22 C    1.445    24 C    1.249    10 C    1.098
                            20 C    0.101
    24   6 C    3.988 --    19 C    1.257    23 C    1.249    15 C    1.248
    25   1 H    0.895 --     1 N    0.883
    26   1 H    0.906 --     1 N    0.887
    27   1 H    0.902 --     1 N    0.887
    28   1 H    0.983 --     2 C    0.960
    29   1 H    0.982 --     2 C    0.961
    30   1 H    0.993 --     3 C    0.962
    31   1 H    0.993 --     3 C    0.961
    32   1 H    0.996 --     6 C    0.963
    33   1 H    0.998 --     7 C    0.962
    34   1 H    0.999 --    11 C    0.962
    35   1 H    0.997 --    12 C    0.970
    36   1 H    0.994 --    13 C    0.964
    37   1 H    0.998 --    16 C    0.962
    38   1 H    0.998 --    17 C    0.970
    39   1 H    0.998 --    18 C    0.969
    40   1 H    0.998 --    20 C    0.969
    41   1 H    0.998 --    21 C    0.970
    42   1 H    0.998 --    22 C    0.962
 ---------------------------------------------------------------------------

molecular dipole:
                 x           y           z       tot (Debye)
 q only:        3.281       1.227      -0.491
   full:        3.568       0.989      -0.114       9.415

           -------------------------------------------------
          | TOTAL ENERGY              -62.985196824978 Eh   |
          | GRADIENT NORM               0.000449217312 Eh/α |
          | HOMO-LUMO GAP               1.847043679908 eV   |
           -------------------------------------------------

 * finished run on 2023/01/24 at 14:58:11.756
