   * xtb version 6.5.1 (fef0646) compiled by 'conda@b96dff2e9fd6' on 2023-01-04
          program call               : xtb init.xyz --opt -c 0 -u 0 -P 16 --alpb water

   ID    Z sym.   atoms
    1    7 N      1
    2    6 C      2-19
    3   16 S      20-23
    4   17 Cl     24
    5    1 H      25-40

      * Solvation model:               ALPB
        Solvent                        water
        Solvent mass                       1.8000E+01 g/mol
          :  Hamiltonian                  GFN2-xTB          :
 * total energy  :   -67.1577845 Eh     change       -0.4202434E-09 Eh
 * total energy  :   -67.1655509 Eh     change       -0.7766351E-02 Eh
 * total energy  :   -67.1678587 Eh     change       -0.2307864E-02 Eh
 * total energy  :   -67.1683325 Eh     change       -0.4738247E-03 Eh
 * total energy  :   -67.1686783 Eh     change       -0.3457807E-03 Eh
 * total energy  :   -67.1689685 Eh     change       -0.2901611E-03 Eh
 * total energy  :   -67.1693417 Eh     change       -0.3731642E-03 Eh
 * total energy  :   -67.1698449 Eh     change       -0.5032097E-03 Eh
 * total energy  :   -67.1703416 Eh     change       -0.4967012E-03 Eh
 * total energy  :   -67.1707932 Eh     change       -0.4516673E-03 Eh
 * total energy  :   -67.1734845 Eh     change       -0.2844519E-04 Eh
 * total energy  :   -67.1735201 Eh     change       -0.3565756E-04 Eh
 * total energy  :   -67.1735519 Eh     change       -0.3176096E-04 Eh
 * total energy  :   -67.1735717 Eh     change       -0.1979572E-04 Eh
 * total energy  :   -67.1735855 Eh     change       -0.1379567E-04 Eh
 * total energy  :   -67.1735937 Eh     change       -0.8261116E-05 Eh
 * total energy  :   -67.1736033 Eh     change       -0.9597373E-05 Eh
 * total energy  :   -67.1736135 Eh     change       -0.1018805E-04 Eh
 * total energy  :   -67.1736185 Eh     change       -0.4926932E-05 Eh
   *** GEOMETRY OPTIMIZATION CONVERGED AFTER 39 ITERATIONS ***

 final structure:
================
40
 xtb: 6.5.1 (fef0646)
N            2.05425877251553        0.72811641351063       -1.96478472171801
C            2.54375279194866       -0.66401814221443       -1.91722254009259
C            3.92987377390406       -0.77654382864709       -2.54075332758587
C            4.98552527634760       -0.05423229462080       -1.76672260375122
C            4.94392767487498        0.47594828147478       -0.51015036911823
C            6.16100256902561        1.05943722881347       -0.11118290066562
C            7.14194677473926        0.97961217416642       -1.06535541352022
C            8.48473790662223        1.44804135101183       -1.00181361807761
C            9.47078769176237        1.35123089610313       -1.95479242074073
C           10.68644648300752        1.91490190594351       -1.55552924642604
C           10.65147716449031        2.45255285128196       -0.29046846925687
C           11.69703556006629        3.09215879456131        0.42939811717233
C           11.66115048633571        3.62339459008287        1.69756461512061
C           12.88014612178959        4.17430072644101        2.10449298853829
C           13.86962870815938        4.07440846448880        1.15580844619390
C           15.21980288685907        4.52223279429837        1.23406433155547
C           16.20676233893911        4.43027920793326        0.28576387376622
C           17.43006462523826        4.98362332130417        0.70705268546667
C           17.37202309409119        5.49177201731268        1.96603659734269
S           15.81544992085828        5.30575808074338        2.67223989675326
S           13.27934185356232        3.28091721948263       -0.27797079369555
S            9.07419752043767        2.25839054280562        0.42556609473733
S            6.55182304464995        0.17047927883736       -2.48845665381937
Cl          -0.00867616172564        0.98545868521450        0.24514462398853
H            1.25194846240337        0.84518346726170       -1.29461428526012
H            1.74941174445069        0.99068418953905       -2.90396677970267
H            2.78985084511814        1.36858602455072       -1.65372588156990
H            1.84204281749269       -1.30124092612045       -2.45220118962196
H            2.56257764917475       -0.98732412427815       -0.87745107058757
H            3.91906747074105       -0.39819252234838       -3.56463886745357
H            4.20319065759954       -1.83255690114577       -2.59825211949444
H            4.08465449277630        0.45067457180865        0.13561639339512
H            6.32361407651072        1.52492195932224        0.84503000703089
H            9.31190414100286        0.88318477961708       -2.91018855672065
H           11.57342648504537        1.93399758123791       -2.16350288179395
H           10.77346757502978        3.60872470595579        2.30520586756025
H           13.04400382516364        4.63419935091345        3.06290360638572
H           16.04522069913076        3.97797278371648       -0.67656338646603
H           18.31544108444170        5.00274770022045        0.09859303014266
H           18.14576109538642        5.96770679939973        2.53342692197227

          :  Hamiltonian                  GFN2-xTB          :
         :: total energy             -67.173618453865 Eh    ::
         :: gradient norm              0.000795746905 Eh/a0 ::
         :: HOMO-LUMO gap              1.767847245944 eV    ::
         :: SCC energy               -68.108182228284 Eh    ::
         :: -> dispersion             -0.049956705975 Eh    ::
         :: -> Gsolv                  -0.071592452595 Eh    ::
         :: repulsion energy           0.935383234297 Eh    ::

    * Orbital Energies and Occupations

         #    Occupation            Energy/Eh            Energy/eV
      -------------------------------------------------------------
         1        2.0000           -1.0065904             -27.3907
       ...           ...                  ...                  ...
        50        2.0000           -0.4446175             -12.0987
        51        2.0000           -0.4433490             -12.0641
        52        2.0000           -0.4372541             -11.8983
        53        2.0000           -0.4123815             -11.2215
        54        2.0000           -0.4038504             -10.9893
        55        2.0000           -0.4034427             -10.9782
        56        2.0000           -0.4025287             -10.9534
        57        2.0000           -0.4009639             -10.9108
        58        2.0000           -0.4004101             -10.8957
        59        2.0000           -0.4003462             -10.8940
        60        2.0000           -0.3958513             -10.7717
        61        2.0000           -0.3808102             -10.3624
        62        2.0000           -0.3558751              -9.6839 (HOMO)
        63                         -0.2909079              -7.9160 (LUMO)
        64                         -0.2621029              -7.1322
        65                         -0.2327032              -6.3322
        66                         -0.2200488              -5.9878
        67                         -0.2142956              -5.8313
        68                         -0.2062318              -5.6119
        69                         -0.2054637              -5.5910
        70                         -0.1983991              -5.3987
        71                         -0.1825669              -4.9679
        72                         -0.1632798              -4.4431
        73                         -0.1521437              -4.1400
       ...                                ...                  ...
       137                          0.7032593              19.1367
      -------------------------------------------------------------
                  HL-Gap            0.0649672 Eh            1.7678 eV

     #   Z          covCN         q      C6AA      α(0)
     1   7 N        3.483    -0.165    24.547     7.359
     2   6 C        3.733    -0.027    21.144     6.563
     3   6 C        3.830    -0.092    22.225     6.708
     4   6 C        2.985     0.031    27.306     8.572
     5   6 C        3.102    -0.065    29.482     8.898
     6   6 C        3.106    -0.054    29.203     8.854
     7   6 C        3.021     0.011    27.736     8.639
     8   6 C        3.024     0.022    27.494     8.601
     9   6 C        3.094    -0.055    29.244     8.863
    10   6 C        3.095    -0.053    29.190     8.855
    11   6 C        3.023     0.018    27.594     8.617
    12   6 C        3.024     0.019    27.558     8.611
    13   6 C        3.096    -0.053    29.203     8.857
    14   6 C        3.097    -0.053    29.198     8.856
    15   6 C        3.022     0.019    27.556     8.611
    16   6 C        3.024     0.017    27.600     8.617
    17   6 C        3.108    -0.055    29.218     8.856
    18   6 C        3.107    -0.048    29.032     8.828
    19   6 C        2.940    -0.024    28.609     8.772
    20  16 S        2.327    -0.044   142.868    20.117
    21  16 S        2.345    -0.057   143.413    20.156
    22  16 S        2.343    -0.066   143.806    20.183
    23  16 S        2.354    -0.049   143.088    20.133
    24  17 Cl       0.056    -0.946   124.847    17.005
    25   1 H        0.912     0.299     0.713     1.321
    26   1 H        0.860     0.304     0.701     1.312
    27   1 H        0.859     0.285     0.761     1.367
    28   1 H        0.925     0.115     1.657     2.013
    29   1 H        0.925     0.100     1.785     2.089
    30   1 H        0.924     0.102     1.764     2.077
    31   1 H        0.924     0.102     1.767     2.079
    32   1 H        0.926     0.062     2.172     2.305
    33   1 H        0.926     0.037     2.489     2.467
    34   1 H        0.926     0.054     2.270     2.356
    35   1 H        0.926     0.048     2.343     2.394
    36   1 H        0.926     0.048     2.345     2.395
    37   1 H        0.926     0.050     2.322     2.383
    38   1 H        0.926     0.048     2.339     2.391
    39   1 H        0.926     0.053     2.287     2.365
    40   1 H        0.927     0.062     2.170     2.303

Wiberg/Mayer (AO) data.
largest (>0.10) Wiberg bond orders for each atom

     #   Z sym  total        # sym  WBO       # sym  WBO       # sym  WBO
 ---------------------------------------------------------------------------
     1   7 N    3.647 --     2 C    0.970    27 H    0.896    26 H    0.894
                            25 H    0.828
     2   6 C    3.931 --     3 C    1.007     1 N    0.970    29 H    0.966
                            28 H    0.964
     3   6 C    3.985 --     4 C    1.025     2 C    1.007    30 H    0.953
                            31 H    0.944
     4   6 C    3.922 --     5 C    1.569    23 S    1.156     3 C    1.025
     5   6 C    3.982 --     4 C    1.569     6 C    1.297    32 H    0.958
     6   6 C    3.969 --     7 C    1.506     5 C    1.297    33 H    0.961
     7   6 C    3.952 --     6 C    1.506     8 C    1.166    23 S    1.114
     8   6 C    3.927 --     9 C    1.478     7 C    1.166    22 S    1.117
     9   6 C    3.981 --     8 C    1.478    10 C    1.340    34 H    0.960
    10   6 C    3.972 --    11 C    1.475     9 C    1.340    35 H    0.960
    11   6 C    3.936 --    10 C    1.475    12 C    1.175    22 S    1.113
    12   6 C    3.937 --    13 C    1.474    11 C    1.175    21 S    1.115
    13   6 C    3.971 --    12 C    1.474    14 C    1.340    36 H    0.961
    14   6 C    3.985 --    15 C    1.481    13 C    1.340    37 H    0.960
    15   6 C    3.930 --    14 C    1.481    16 C    1.164    21 S    1.118
    16   6 C    3.951 --    17 C    1.505    15 C    1.164    20 S    1.122
    17   6 C    3.969 --    16 C    1.505    18 C    1.300    38 H    0.961
    18   6 C    3.986 --    19 C    1.605    17 C    1.300    39 H    0.963
    19   6 C    3.921 --    18 C    1.605    20 S    1.190    40 H    0.968
    20  16 S    2.595 --    19 C    1.190    16 C    1.122
    21  16 S    2.555 --    15 C    1.118    12 C    1.115
    22  16 S    2.551 --     8 C    1.117    11 C    1.113
    23  16 S    2.565 --     4 C    1.156     7 C    1.114
    24  17 Cl   0.104
    25   1 H    0.911 --     1 N    0.828
    26   1 H    0.908 --     1 N    0.894
    27   1 H    0.919 --     1 N    0.896
    28   1 H    0.987 --     2 C    0.964
    29   1 H    0.990 --     2 C    0.966
    30   1 H    0.987 --     3 C    0.953
    31   1 H    0.986 --     3 C    0.944
    32   1 H    0.996 --     5 C    0.958
    33   1 H    0.998 --     6 C    0.961
    34   1 H    0.997 --     9 C    0.960
    35   1 H    0.997 --    10 C    0.960
    36   1 H    0.997 --    13 C    0.961
    37   1 H    0.997 --    14 C    0.960
    38   1 H    0.998 --    17 C    0.961
    39   1 H    0.997 --    18 C    0.963
    40   1 H    0.996 --    19 C    0.968
 ---------------------------------------------------------------------------

molecular dipole:
                 x           y           z       tot (Debye)
 q only:        3.069      -1.151      -4.367
   full:        2.955      -0.809      -3.626      12.066

           -------------------------------------------------
          | TOTAL ENERGY              -67.173618453865 Eh   |
          | GRADIENT NORM               0.000795746905 Eh/α |
          | HOMO-LUMO GAP               1.767847245944 eV   |
           -------------------------------------------------

 * finished run on 2023/01/24 at 15:40:27.372
