   * xtb version 6.5.1 (fef0646) compiled by 'conda@b96dff2e9fd6' on 2023-01-04
          program call               : xtb init.xyz --opt -c 0 -u 0 -P 16 --alpb water

   ID    Z sym.   atoms
    1    7 N      1, 6
    2    6 C      2-5, 7-18
    3   17 Cl     19
    4    1 H      20-40

      * Solvation model:               ALPB
        Solvent                        water
        Solvent mass                       1.8000E+01 g/mol
          :  Hamiltonian                  GFN2-xTB          :
 * total energy  :   -55.2275075 Eh     change       -0.2242579E-08 Eh
 * total energy  :   -55.2528124 Eh     change       -0.2530488E-01 Eh
 * total energy  :   -55.2639195 Eh     change       -0.1110710E-01 Eh
 * total energy  :   -55.2686122 Eh     change       -0.4692660E-02 Eh
 * total energy  :   -55.2714566 Eh     change       -0.2844420E-02 Eh
 * total energy  :   -55.2733007 Eh     change       -0.1844084E-02 Eh
 * total energy  :   -55.2745347 Eh     change       -0.1234015E-02 Eh
 * total energy  :   -55.2754074 Eh     change       -0.8727365E-03 Eh
 * total energy  :   -55.2761151 Eh     change       -0.7077022E-03 Eh
 * total energy  :   -55.2767850 Eh     change       -0.6698998E-03 Eh
 * total energy  :   -55.2861206 Eh     change       -0.1628058E-04 Eh
 * total energy  :   -55.2861348 Eh     change       -0.1420863E-04 Eh
 * total energy  :   -55.2861536 Eh     change       -0.1876871E-04 Eh
 * total energy  :   -55.2861733 Eh     change       -0.1974357E-04 Eh
 * total energy  :   -55.2861803 Eh     change       -0.6978543E-05 Eh
 * total energy  :   -55.2861857 Eh     change       -0.5408012E-05 Eh
 * total energy  :   -55.2861968 Eh     change       -0.1104354E-04 Eh
 * total energy  :   -55.2862076 Eh     change       -0.1087224E-04 Eh
 * total energy  :   -55.2862099 Eh     change       -0.2214894E-05 Eh
   *** GEOMETRY OPTIMIZATION CONVERGED AFTER 122 ITERATIONS ***

 final structure:
================
40
 xtb: 6.5.1 (fef0646)
N           13.22190488390607        5.64291916397594        0.41764492008669
C           14.18005915249583        4.54043703317420        0.67797283810143
C           13.51540594961752        3.18307576921854        0.48198757485041
C           13.20057092266475        2.87663020086862       -0.98222445700064
C           12.45793733444427        1.54311956965223       -1.12639948195124
N           11.15623427057097        1.60918333048760       -0.48991201357458
C           10.77752896778534        0.58217407999457        0.48093346741938
C            9.19407956949673        0.79970618255111        0.62543085584079
C            9.26148249021029        1.59294076420052        1.87358042938429
C            9.65829917801286        0.89137779630109        2.98371110801168
C           11.11037668290806        0.86313672395743        3.01393083948701
C           11.58923568283721        0.68865402520817        1.76666975002094
C           10.04647084678189        1.99665418999047       -1.21423640189047
C            8.85865990200818        1.55919911295146       -0.61294368905220
C            7.63342447903519        1.87436273526746       -1.14953332377374
C            7.58436294193663        2.63767313796846       -2.31255353864059
C            8.75523930751261        3.06784340494420       -2.91039192613562
C            9.99723781837372        2.75876216500837       -2.37301664417884
Cl           9.62867253969624       -2.95312460577245        0.48867450394557
H           13.66427270546919        6.55634590217091        0.56795302972645
H           12.41241304536050        5.55452307449481        1.04280165614285
H           12.88295068304321        5.59163251952228       -0.54946699613323
H           14.53711288458538        4.62114764390272        1.70388471501327
H           15.02834805083447        4.63732538424865        0.00072472851827
H           12.59395674910940        3.11876448019789        1.06260333597585
H           14.18567806455707        2.41289515121757        0.86283524345737
H           14.12159865100940        2.81829818418511       -1.56317397851159
H           12.56068738264818        3.64578175186756       -1.41263920338318
H           13.02995930960154        0.73718579482187       -0.66212484441884
H           12.34241516037527        1.29124079907063       -2.18885448348902
H           10.95582838087253       -0.42773275092263        0.06411348627421
H            8.68864155531388       -0.16168813833474        0.73238428193919
H            9.76275752860166        2.54439911113184        1.71340258944214
H            9.15057737200273       -0.02575130776321        3.26604834581684
H           11.73053420113795        0.76952089398060        3.89350920171142
H           12.64061172723343        0.46985478374266        1.63293999796033
H            6.72653368479819        1.51918001106321       -0.68051497468031
H            6.62874926208796        2.88338125102481       -2.75081764359293
H            8.70372402890100        3.65073482805003       -3.81813629392630
H           10.89297665218540        3.08301585311430       -2.87705700456161

          :  Hamiltonian                  GFN2-xTB          :
         :: total energy             -55.286209859445 Eh    ::
         :: gradient norm              0.000206279527 Eh/a0 ::
         :: HOMO-LUMO gap              1.933220433792 eV    ::
         :: SCC energy               -56.102108703676 Eh    ::
         :: -> dispersion             -0.042228219489 Eh    ::
         :: -> Gsolv                  -0.179576592012 Eh    ::
         :: repulsion energy           0.814931209512 Eh    ::

    * Orbital Energies and Occupations

         #    Occupation            Energy/Eh            Energy/eV
      -------------------------------------------------------------
         1        2.0000           -0.9973780             -27.1400
       ...           ...                  ...                  ...
        39        2.0000           -0.4374219             -11.9029
        40        2.0000           -0.4344003             -11.8206
        41        2.0000           -0.4321282             -11.7588
        42        2.0000           -0.4250356             -11.5658
        43        2.0000           -0.4137574             -11.2589
        44        2.0000           -0.4113689             -11.1939
        45        2.0000           -0.4027126             -10.9584
        46        2.0000           -0.3996508             -10.8751
        47        2.0000           -0.3995632             -10.8727
        48        2.0000           -0.3980990             -10.8328
        49        2.0000           -0.3901533             -10.6166
        50        2.0000           -0.3436011              -9.3499
        51        2.0000           -0.3335437              -9.0762 (HOMO)
        52                         -0.2624992              -7.1430 (LUMO)
        53                         -0.2116840              -5.7602
        54                         -0.2057107              -5.5977
        55                         -0.2014273              -5.4811
        56                         -0.0813311              -2.2131
        57                         -0.0438543              -1.1933
        58                          0.0040367               0.1098
        59                          0.0171628               0.4670
        60                          0.0542314               1.4757
        61                          0.0586774               1.5967
        62                          0.0780004               2.1225
       ...                                ...                  ...
       102                          0.6997504              19.0412
      -------------------------------------------------------------
                  HL-Gap            0.0710445 Eh            1.9332 eV

     #   Z          covCN         q      C6AA      α(0)
     1   7 N        3.485    -0.157    24.381     7.334
     2   6 C        3.731    -0.041    21.393     6.602
     3   6 C        3.803    -0.083    22.076     6.689
     4   6 C        3.803    -0.082    22.055     6.686
     5   6 C        3.743     0.002    20.619     6.478
     6   7 N        2.760    -0.121    23.622     7.218
     7   6 C        3.885     0.054    19.625     6.298
     8   6 C        3.895     0.001    20.502     6.437
     9   6 C        3.009    -0.055    29.339     8.885
    10   6 C        2.960    -0.067    29.673     8.935
    11   6 C        2.946    -0.025    28.629     8.776
    12   6 C        2.947    -0.045    29.115     8.850
    13   6 C        2.982     0.059    26.662     8.470
    14   6 C        3.013    -0.021    28.500     8.757
    15   6 C        2.916    -0.039    28.980     8.828
    16   6 C        2.920    -0.053    29.327     8.881
    17   6 C        2.922    -0.043    29.066     8.841
    18   6 C        2.915    -0.070    29.748     8.944
    19  17 Cl       0.000    -0.997   126.898    17.144
    20   1 H        0.859     0.320     0.657     1.270
    21   1 H        0.859     0.306     0.696     1.307
    22   1 H        0.859     0.300     0.712     1.322
    23   1 H        0.925     0.115     1.658     2.014
    24   1 H        0.925     0.115     1.657     2.013
    25   1 H        0.924     0.069     2.100     2.266
    26   1 H        0.925     0.063     2.164     2.300
    27   1 H        0.924     0.063     2.168     2.303
    28   1 H        0.925     0.069     2.101     2.267
    29   1 H        0.924     0.036     2.497     2.471
    30   1 H        0.923     0.030     2.584     2.514
    31   1 H        0.922     0.007     2.933     2.678
    32   1 H        0.924     0.014     2.821     2.627
    33   1 H        0.925     0.049     2.333     2.388
    34   1 H        0.925     0.000     3.054     2.733
    35   1 H        0.926     0.054     2.275     2.359
    36   1 H        0.925     0.057     2.234     2.337
    37   1 H        0.926     0.007     2.931     2.677
    38   1 H        0.926     0.020     2.730     2.584
    39   1 H        0.926     0.037     2.487     2.466
    40   1 H        0.926     0.050     2.322     2.383

Wiberg/Mayer (AO) data.
largest (>0.10) Wiberg bond orders for each atom

     #   Z sym  total        # sym  WBO       # sym  WBO       # sym  WBO
 ---------------------------------------------------------------------------
     1   7 N    3.656 --     2 C    0.966    21 H    0.891    22 H    0.890
                            20 H    0.885
     2   6 C    3.927 --     3 C    1.013     1 N    0.966    23 H    0.966
                            24 H    0.964
     3   6 C    3.990 --     2 C    1.013     4 C    1.008    26 H    0.969
                            25 H    0.967
     4   6 C    3.989 --     3 C    1.008     5 C    0.995    27 H    0.974
                            28 H    0.967
     5   6 C    3.971 --     4 C    0.995     6 N    0.985    29 H    0.971
                            30 H    0.967
     6   7 N    3.351 --    13 C    1.136     5 C    0.985     7 C    0.975
     7   6 C    3.978 --    12 C    1.017     6 N    0.975    31 H    0.946
                             8 C    0.898
     8   6 C    3.989 --     9 C    1.027    14 C    1.005    32 H    0.961
                             7 C    0.898
     9   6 C    3.954 --    10 C    1.757     8 C    1.027    33 H    0.961
                            12 C    0.101
    10   6 C    3.940 --     9 C    1.757    11 C    1.098    34 H    0.946
    11   6 C    3.977 --    12 C    1.822    10 C    1.098    35 H    0.959
    12   6 C    3.982 --    11 C    1.822     7 C    1.017    36 H    0.955
                             9 C    0.101
    13   6 C    3.973 --    18 C    1.368    14 C    1.293     6 N    1.136
    14   6 C    3.985 --    15 C    1.465    13 C    1.293     8 C    1.005
                            17 C    0.102
    15   6 C    3.990 --    14 C    1.465    16 C    1.399    37 H    0.971
    16   6 C    3.986 --    17 C    1.451    15 C    1.399    38 H    0.972
    17   6 C    3.990 --    16 C    1.451    18 C    1.428    39 H    0.971
                            14 C    0.102
    18   6 C    3.980 --    17 C    1.428    13 C    1.368    40 H    0.964
    19  17 Cl   0.005
    20   1 H    0.898 --     1 N    0.885
    21   1 H    0.906 --     1 N    0.891
    22   1 H    0.910 --     1 N    0.890
    23   1 H    0.987 --     2 C    0.966
    24   1 H    0.987 --     2 C    0.964
    25   1 H    0.995 --     3 C    0.967
    26   1 H    0.996 --     3 C    0.969
    27   1 H    0.996 --     4 C    0.974
    28   1 H    0.995 --     4 C    0.967
    29   1 H    0.998 --     5 C    0.971
    30   1 H    0.999 --     5 C    0.967
    31   1 H    1.000 --     7 C    0.946
    32   1 H    0.999 --     8 C    0.961
    33   1 H    0.998 --     9 C    0.961
    34   1 H    1.000 --    10 C    0.946
    35   1 H    0.996 --    11 C    0.959
    36   1 H    0.996 --    12 C    0.955
    37   1 H    0.999 --    15 C    0.971
    38   1 H    0.999 --    16 C    0.972
    39   1 H    0.998 --    17 C    0.971
    40   1 H    0.997 --    18 C    0.964
 ---------------------------------------------------------------------------

molecular dipole:
                 x           y           z       tot (Debye)
 q only:        8.258      16.080      -0.167
   full:        7.880      15.174      -0.323      43.466

           -------------------------------------------------
          | TOTAL ENERGY              -55.286209859445 Eh   |
          | GRADIENT NORM               0.000206279527 Eh/α |
          | HOMO-LUMO GAP               1.933220433792 eV   |
           -------------------------------------------------

 * finished run on 2023/01/24 at 14:58:00.595
