   * xtb version 6.5.1 (fef0646) compiled by 'conda@b96dff2e9fd6' on 2023-01-04
          program call               : xtb init.xyz --opt -c 0 -u 0 -P 16

   ID    Z sym.   atoms
    1    7 N      1
    2    6 C      2-9
    3   17 Cl     10
    4    1 H      11-22

          :  Hamiltonian                  GFN2-xTB          :
 * total energy  :   -30.6763452 Eh     change       -0.9098677E-09 Eh
 * total energy  :   -30.6802338 Eh     change       -0.3888666E-02 Eh
 * total energy  :   -30.6863615 Eh     change       -0.6127659E-02 Eh
 * total energy  :   -30.6916780 Eh     change       -0.5316481E-02 Eh
 * total energy  :   -30.6964258 Eh     change       -0.4747842E-02 Eh
 * total energy  :   -30.6989958 Eh     change       -0.2569990E-02 Eh
 * total energy  :   -30.7002803 Eh     change       -0.1284456E-02 Eh
 * total energy  :   -30.7013759 Eh     change       -0.1095659E-02 Eh
 * total energy  :   -30.7020417 Eh     change       -0.6657749E-03 Eh
 * total energy  :   -30.7023229 Eh     change       -0.2812023E-03 Eh
 * total energy  :   -30.7044036 Eh     change       -0.8868734E-05 Eh
 * total energy  :   -30.7044133 Eh     change       -0.9791738E-05 Eh
 * total energy  :   -30.7044096 Eh     change        0.3718884E-05 Eh
 * total energy  :   -30.7044235 Eh     change       -0.1387185E-04 Eh
 * total energy  :   -30.7044235 Eh     change       -0.5280665E-07 Eh
 * total energy  :   -30.7044303 Eh     change       -0.6778419E-05 Eh
 * total energy  :   -30.7044213 Eh     change        0.9042827E-05 Eh
 * total energy  :   -30.7044307 Eh     change       -0.9407532E-05 Eh
 * total energy  :   -30.7044326 Eh     change       -0.1866080E-05 Eh
   *** GEOMETRY OPTIMIZATION CONVERGED AFTER 47 ITERATIONS ***

 final structure:
================
22
 xtb: 6.5.1 (fef0646)
N            1.01242801169254       -0.61509695731575       -0.16105192235127
C            2.44403198346073       -0.31947558080840       -0.03230404250996
C            3.26893093367533       -1.55578518736053        0.34276929680858
C            2.93488009876601        0.29860475814967       -1.32146477023590
C            3.43370070851502        1.59360355198458       -1.33090057876054
C            3.87593021932500        2.17013973665485       -2.50816330420357
C            3.82133256511689        1.45755429010535       -3.69332842322731
C            3.32469522740119        0.16560667741944       -3.69399640907145
C            2.88541889917667       -0.40964419160870       -2.51563708549311
Cl          -0.36689955032801        1.84540857813864       -0.95264672302411
H            0.63503942293315       -0.97974432843916        0.70707161127883
H            0.85003789914501       -1.29204354349009       -0.89936663836237
H            0.27177230057107        0.69723634031893       -0.56932711150705
H            2.53536794283585        0.42188734366208        0.76907765185116
H            3.18771487633109       -2.32229847934250       -0.42526435783739
H            2.92256625600172       -1.97119708302732        1.28789934083513
H            4.31661062171232       -1.28599877940245        0.44686957120501
H            3.46788327642743        2.15790761165941       -0.41072601821411
H            4.25639414794459        3.18071570482384       -2.50132942351577
H            4.16109420124605        1.90777618065784       -4.61423387809830
H            3.27783703860880       -0.39597675804759       -4.61535939849906
H            2.50192291944147       -1.42012988473191       -2.53582738706838

          :  Hamiltonian                  GFN2-xTB          :
         :: total energy             -30.704432557619 Eh    ::
         :: gradient norm              0.000592470588 Eh/a0 ::
         :: HOMO-LUMO gap              4.406761026900 eV    ::
         :: SCC energy               -31.148554530394 Eh    ::
         :: -> dispersion             -0.018892505647 Eh    ::
         :: repulsion energy           0.443937815677 Eh    ::

    * Orbital Energies and Occupations

         #    Occupation            Energy/Eh            Energy/eV
      -------------------------------------------------------------
         1        2.0000           -1.0137952             -27.5868
       ...           ...                  ...                  ...
        16        2.0000           -0.4937149             -13.4347
        17        2.0000           -0.4833948             -13.1538
        18        2.0000           -0.4805989             -13.0778
        19        2.0000           -0.4773817             -12.9902
        20        2.0000           -0.4712118             -12.8223
        21        2.0000           -0.4570688             -12.4375
        22        2.0000           -0.4287468             -11.6668
        23        2.0000           -0.4252248             -11.5710
        24        2.0000           -0.4074196             -11.0865
        25        2.0000           -0.4062831             -11.0555
        26        2.0000           -0.3958521             -10.7717
        27        2.0000           -0.3909097             -10.6372
        28        2.0000           -0.3906111             -10.6291 (HOMO)
        29                         -0.2286657              -6.2223 (LUMO)
        30                         -0.2256613              -6.1406
        31                         -0.0993703              -2.7040
        32                         -0.0511823              -1.3927
        33                          0.0266630               0.7255
        34                          0.0703659               1.9148
        35                          0.0705258               1.9191
        36                          0.0729791               1.9859
        37                          0.0763933               2.0788
        38                          0.0764061               2.0791
        39                          0.0816519               2.2219
       ...                                ...                  ...
        57                          0.6619610              18.0129
      -------------------------------------------------------------
                  HL-Gap            0.1619455 Eh            4.4068 eV

     #   Z          covCN         q      C6AA      α(0)
     1   7 N        2.696    -0.311    27.998     7.859
     2   6 C        3.787     0.042    19.881     6.351
     3   6 C        3.753    -0.114    22.733     6.799
     4   6 C        2.974     0.005    27.912     8.666
     5   6 C        2.925    -0.031    28.762     8.795
     6   6 C        2.919    -0.025    28.621     8.773
     7   6 C        2.921    -0.028    28.698     8.785
     8   6 C        2.919    -0.028    28.705     8.786
     9   6 C        2.925    -0.032    28.794     8.800
    10  17 Cl       0.838    -0.483   115.044    16.408
    11   1 H        0.860     0.166     1.300     1.786
    12   1 H        0.860     0.169     1.279     1.772
    13   1 H        0.900     0.329     0.631     1.243
    14   1 H        0.924     0.049     2.337     2.391
    15   1 H        0.925     0.041     2.434     2.440
    16   1 H        0.925     0.038     2.477     2.461
    17   1 H        0.925     0.045     2.380     2.413
    18   1 H        0.926     0.037     2.486     2.465
    19   1 H        0.926     0.037     2.493     2.469
    20   1 H        0.926     0.034     2.525     2.485
    21   1 H        0.926     0.033     2.543     2.494
    22   1 H        0.926     0.026     2.644     2.543

Wiberg/Mayer (AO) data.
largest (>0.10) Wiberg bond orders for each atom

     #   Z sym  total        # sym  WBO       # sym  WBO       # sym  WBO
 ---------------------------------------------------------------------------
     1   7 N    3.242 --     2 C    0.988    11 H    0.957    12 H    0.954
                            13 H    0.205
     2   6 C    3.973 --     3 C    0.994     4 C    0.990     1 N    0.988
                            14 H    0.964
     3   6 C    3.995 --     2 C    0.994    16 H    0.985    17 H    0.985
                            15 H    0.984
     4   6 C    3.988 --     5 C    1.418     9 C    1.415     2 C    0.990
                             7 C    0.111
     5   6 C    3.992 --     6 C    1.443     4 C    1.418    18 H    0.968
                             8 C    0.111
     6   6 C    3.992 --     5 C    1.443     7 C    1.441    19 H    0.971
                             9 C    0.112
     7   6 C    3.992 --     6 C    1.441     8 C    1.438    20 H    0.971
                             4 C    0.111
     8   6 C    3.993 --     9 C    1.446     7 C    1.438    21 H    0.971
                             5 C    0.111
     9   6 C    3.993 --     8 C    1.446     4 C    1.415    22 H    0.966
                             6 C    0.112
    10  17 Cl   0.769 --    13 H    0.683
    11   1 H    0.972 --     1 N    0.957
    12   1 H    0.971 --     1 N    0.954
    13   1 H    0.892 --    10 Cl   0.683     1 N    0.205
    14   1 H    0.997 --     2 C    0.964
    15   1 H    0.998 --     3 C    0.984
    16   1 H    0.998 --     3 C    0.985
    17   1 H    0.998 --     3 C    0.985
    18   1 H    0.999 --     5 C    0.968
    19   1 H    0.998 --     6 C    0.971
    20   1 H    0.998 --     7 C    0.971
    21   1 H    0.999 --     8 C    0.971
    22   1 H    0.999 --     9 C    0.966
 ---------------------------------------------------------------------------

molecular dipole:
                 x           y           z       tot (Debye)
 q only:        1.163      -1.542       0.446
   full:        1.046      -1.544       0.407       4.853

           -------------------------------------------------
          | TOTAL ENERGY              -30.704432557619 Eh   |
          | GRADIENT NORM               0.000592470588 Eh/α |
          | HOMO-LUMO GAP               4.406761026900 eV   |
           -------------------------------------------------

 * finished run on 2023/01/23 at 14:29:19.250
