   * xtb version 6.5.1 (fef0646) compiled by 'conda@b96dff2e9fd6' on 2023-01-04
          program call               : xtb init.xyz --opt -c 0 -u 0 -P 16

   ID    Z sym.   atoms
    1    7 N      1
    2    6 C      2-13
    3   17 Cl     14
    4    1 H      15-28

          :  Hamiltonian                  GFN2-xTB          :
 * total energy  :   -40.2253066 Eh     change       -0.9711059E-09 Eh
 * total energy  :   -40.2396423 Eh     change       -0.1433564E-01 Eh
 * total energy  :   -40.2479825 Eh     change       -0.8340270E-02 Eh
 * total energy  :   -40.2543657 Eh     change       -0.6383195E-02 Eh
 * total energy  :   -40.2651156 Eh     change       -0.1074984E-01 Eh
 * total energy  :   -40.2771797 Eh     change       -0.1206413E-01 Eh
 * total energy  :   -40.2860944 Eh     change       -0.8914671E-02 Eh
 * total energy  :   -40.2890122 Eh     change       -0.2917838E-02 Eh
 * total energy  :   -40.2911255 Eh     change       -0.2113317E-02 Eh
 * total energy  :   -40.2928160 Eh     change       -0.1690484E-02 Eh
 * total energy  :   -40.2997539 Eh     change       -0.7066089E-04 Eh
 * total energy  :   -40.2998037 Eh     change       -0.4984987E-04 Eh
 * total energy  :   -40.2998305 Eh     change       -0.2676241E-04 Eh
 * total energy  :   -40.2998433 Eh     change       -0.1283418E-04 Eh
 * total energy  :   -40.2998553 Eh     change       -0.1200652E-04 Eh
 * total energy  :   -40.2998707 Eh     change       -0.1540210E-04 Eh
 * total energy  :   -40.2998835 Eh     change       -0.1279698E-04 Eh
 * total energy  :   -40.2998894 Eh     change       -0.5916223E-05 Eh
 * total energy  :   -40.2998944 Eh     change       -0.4950823E-05 Eh
   *** GEOMETRY OPTIMIZATION CONVERGED AFTER 39 ITERATIONS ***

 final structure:
================
28
 xtb: 6.5.1 (fef0646)
N            2.74318217969265        3.01019581290858       -1.77224032524419
C            2.46180658547283        2.56623268822289       -0.40872189747597
C            2.95605873328347        1.12717586332487       -0.22244686096759
C            4.44612827277031        1.05139340250005       -0.40236864847327
C            4.99269603598154        0.69111095694517       -1.60736555221008
C            6.38935203925445        0.66412578205816       -1.79895417578188
C            6.96762888876345        0.29232097204200       -3.03074801919702
C            8.32511995850931        0.27922182097087       -3.18786962191181
C            9.16662873642374        0.63804769959407       -2.12283164761386
C            8.63684773945129        1.00221034671642       -0.91670460016896
C            7.24052007830842        1.02467110418631       -0.72185979237124
C            6.65608206645259        1.39170216764014        0.50855089054579
C            5.29922652907525        1.40501299939504        0.66208735175761
Cl           1.58530237514581        1.16260031119741       -3.71883545683926
H            2.40028208898277        3.95004410190056       -1.93566389595696
H            2.11402062065163        2.03732208699062       -2.78797742090299
H            3.74340895767337        2.98255554453476       -1.94993696396168
H            1.38010535020451        2.60370582862673       -0.26228525452156
H            2.93664633098321        3.21670086724977        0.33955708750993
H            2.45995457335965        0.49340938083772       -0.95650062246528
H            2.68044224589806        0.79175461924344        0.77843748602968
H            4.34938904370705        0.41629957939131       -2.43108231876426
H            6.31460163595409        0.01733314354353       -3.84651409011163
H            8.76199643340430       -0.00785441915713       -4.13322311594411
H           10.23730971443321        0.62297034738591       -2.26582641474588
H            9.28048671577586        1.27832083377659       -0.09322560873389
H            7.30369385223869        1.66090018725689        1.33105864316180
H            4.86263221815750        1.68359597070752        1.61121084535671

          :  Hamiltonian                  GFN2-xTB          :
         :: total energy             -40.299894388984 Eh    ::
         :: gradient norm              0.000450034214 Eh/a0 ::
         :: HOMO-LUMO gap              3.222936948087 eV    ::
         :: SCC energy               -40.932209082034 Eh    ::
         :: -> dispersion             -0.027616198087 Eh    ::
         :: repulsion energy           0.632154175161 Eh    ::

    * Orbital Energies and Occupations

         #    Occupation            Energy/Eh            Energy/eV
      -------------------------------------------------------------
         1        2.0000           -1.0167847             -27.6681
       ...           ...                  ...                  ...
        25        2.0000           -0.4708645             -12.8129
        26        2.0000           -0.4595471             -12.5049
        27        2.0000           -0.4577654             -12.4564
        28        2.0000           -0.4490802             -12.2201
        29        2.0000           -0.4398823             -11.9698
        30        2.0000           -0.4270286             -11.6200
        31        2.0000           -0.4189641             -11.4006
        32        2.0000           -0.4154940             -11.3062
        33        2.0000           -0.4010355             -10.9127
        34        2.0000           -0.3979568             -10.8290
        35        2.0000           -0.3938528             -10.7173
        36        2.0000           -0.3936075             -10.7106
        37        2.0000           -0.3794047             -10.3241 (HOMO)
        38                         -0.2609640              -7.1012 (LUMO)
        39                         -0.2303828              -6.2690
        40                         -0.1903328              -5.1792
        41                         -0.1482154              -4.0331
        42                         -0.0587220              -1.5979
        43                         -0.0553377              -1.5058
        44                          0.0209818               0.5709
        45                          0.0678659               1.8467
        46                          0.0684393               1.8623
        47                          0.0738878               2.0106
        48                          0.0739626               2.0126
       ...                                ...                  ...
        75                          0.6948374              18.9075
      -------------------------------------------------------------
                  HL-Gap            0.1184408 Eh            3.2229 eV

     #   Z          covCN         q      C6AA      α(0)
     1   7 N        2.715    -0.301    27.755     7.825
     2   6 C        3.733     0.012    20.469     6.457
     3   6 C        3.810    -0.080    22.028     6.681
     4   6 C        2.967     0.009    27.817     8.651
     5   6 C        2.923    -0.052    29.283     8.874
     6   6 C        2.986     0.011    27.760     8.643
     7   6 C        2.918    -0.036    28.890     8.814
     8   6 C        2.916    -0.030    28.743     8.791
     9   6 C        2.916    -0.030    28.757     8.794
    10   6 C        2.918    -0.036    28.886     8.813
    11   6 C        2.987     0.009    27.809     8.650
    12   6 C        2.916    -0.038    28.941     8.822
    13   6 C        2.920    -0.041    29.017     8.834
    14  17 Cl       0.836    -0.497   115.569    16.446
    15   1 H        0.860     0.165     1.301     1.787
    16   1 H        0.919     0.333     0.620     1.231
    17   1 H        0.860     0.173     1.254     1.754
    18   1 H        0.924     0.052     2.299     2.371
    19   1 H        0.923     0.027     2.633     2.538
    20   1 H        0.925     0.069     2.093     2.262
    21   1 H        0.924     0.050     2.325     2.384
    22   1 H        0.926     0.049     2.327     2.385
    23   1 H        0.926     0.036     2.503     2.474
    24   1 H        0.926     0.030     2.580     2.512
    25   1 H        0.926     0.029     2.597     2.520
    26   1 H        0.926     0.029     2.596     2.520
    27   1 H        0.926     0.030     2.588     2.515
    28   1 H        0.925     0.027     2.625     2.534

Wiberg/Mayer (AO) data.
largest (>0.10) Wiberg bond orders for each atom

     #   Z sym  total        # sym  WBO       # sym  WBO       # sym  WBO
 ---------------------------------------------------------------------------
     1   7 N    3.255 --     2 C    1.007    15 H    0.959    17 H    0.950
                            16 H    0.221
     2   6 C    3.973 --     1 N    1.007     3 C    0.989    18 H    0.974
                            19 H    0.972
     3   6 C    3.992 --     4 C    1.011     2 C    0.989    20 H    0.969
                            21 H    0.968
     4   6 C    3.989 --     5 C    1.524    13 C    1.295     3 C    1.011
     5   6 C    3.990 --     4 C    1.524     6 C    1.282    22 H    0.964
                            12 C    0.115
     6   6 C    3.991 --     5 C    1.282     7 C    1.278    11 C    1.251
     7   6 C    3.990 --     8 C    1.558     6 C    1.278    23 H    0.968
                            10 C    0.118
     8   6 C    3.992 --     7 C    1.558     9 C    1.321    24 H    0.971
     9   6 C    3.990 --    10 C    1.556     8 C    1.321    25 H    0.971
    10   6 C    3.992 --     9 C    1.556    11 C    1.281    26 H    0.969
                             7 C    0.118
    11   6 C    3.991 --    10 C    1.281    12 C    1.276     6 C    1.251
    12   6 C    3.992 --    13 C    1.564    11 C    1.276    27 H    0.968
                             5 C    0.115
    13   6 C    3.992 --    12 C    1.564     4 C    1.295    28 H    0.969
    14  17 Cl   0.757 --    16 H    0.663
    15   1 H    0.973 --     1 N    0.959
    16   1 H    0.889 --    14 Cl   0.663     1 N    0.221
    17   1 H    0.970 --     1 N    0.950
    18   1 H    0.997 --     2 C    0.974
    19   1 H    0.999 --     2 C    0.972
    20   1 H    0.995 --     3 C    0.969
    21   1 H    0.996 --     3 C    0.968
    22   1 H    0.997 --     5 C    0.964
    23   1 H    0.998 --     7 C    0.968
    24   1 H    0.999 --     8 C    0.971
    25   1 H    0.999 --     9 C    0.971
    26   1 H    0.999 --    10 C    0.969
    27   1 H    0.998 --    12 C    0.968
    28   1 H    0.999 --    13 C    0.969
 ---------------------------------------------------------------------------

molecular dipole:
                 x           y           z       tot (Debye)
 q only:        0.711       1.085       1.353
   full:        0.688       1.135       1.190       4.530

           -------------------------------------------------
          | TOTAL ENERGY              -40.299894388984 Eh   |
          | GRADIENT NORM               0.000450034214 Eh/α |
          | HOMO-LUMO GAP               3.222936948087 eV   |
           -------------------------------------------------

 * finished run on 2023/01/23 at 13:51:29.052
