   * xtb version 6.5.1 (fef0646) compiled by 'conda@b96dff2e9fd6' on 2023-01-04
          program call               : xtb init.xyz --opt -c 1 -u 0 -P 16 --input xtb.inp

   ID    Z sym.   atoms
    1    7 N      1
    2    6 C      2-13
    3    1 H      14-41

          :  Hamiltonian                  GFN2-xTB          :
 * total energy  :   -42.4826965 Eh     change       -0.1166356E-09 Eh
 * total energy  :   -42.4842416 Eh     change       -0.1545175E-02 Eh
 * total energy  :   -42.4844090 Eh     change       -0.1673914E-03 Eh
 * total energy  :   -42.4844516 Eh     change       -0.4261361E-04 Eh
 * total energy  :   -42.4844588 Eh     change       -0.7172012E-05 Eh
 * total energy  :   -42.4844602 Eh     change       -0.1344288E-05 Eh
   *** GEOMETRY OPTIMIZATION CONVERGED AFTER 6 ITERATIONS ***

 final structure:
================
41
 xtb: 6.5.1 (fef0646)
N            0.80342355565736        0.01241591047944        0.08880404908616
C            2.30290734738746        0.00059772312448        0.08399578996731
C            2.82410021706270       -1.08642876640426       -0.84303459679992
C            4.35550955721895       -1.10516084416029       -0.85601357277699
C            4.89412949129602       -2.19305945490777       -1.78359125613151
C            6.42088420214094       -2.21540426828023       -1.80242402427844
C            6.96054341940231       -3.30191489198431       -2.72956895415212
C            8.48684874347993       -3.32692846355284       -2.75175030350589
C            9.02663847221072       -4.41353371429212       -3.67832295517695
C           10.55290428412068       -4.44065539943962       -3.70178832912465
C           11.09152390343235       -5.52738163273967       -4.62878332871109
C           12.61773530570387       -5.55795665371689       -4.65505299977503
C           13.14577582610729       -6.64479347404868       -5.58307582492732
H            0.43260447122075        0.74170069234165        0.71064050572324
H            0.45170025718162       -0.90246968536709        0.40113932503184
H            0.45621807142443        0.17944505191064       -0.86505102461502
H            2.64920594630766       -0.17097460423699        1.10399309368532
H            2.65392747054094        0.98012101788615       -0.24322474259794
H            2.46671771578956       -0.91399158453010       -1.86024461302725
H            2.46394509223301       -2.06332950436540       -0.51424079919667
H            4.72616605188143       -1.27922703703474        0.15524976454478
H            4.72870362343921       -0.13449364872274       -1.18599641088458
H            4.52556714826747       -2.02247781458713       -2.79716014274749
H            4.52526895205123       -3.16688850645859       -1.45520146338342
H            6.79351217926702       -2.38748626784230       -0.79051210495323
H            6.79365290204500       -1.24319358200443       -2.13150001662417
H            6.58847742777006       -3.13114300498406       -3.74228547421107
H            6.58918952988456       -4.27525664045937       -2.40112110840327
H            8.86040204349075       -3.49787067776319       -1.73956661795704
H            8.85963980264514       -2.35436209255302       -3.08102570750011
H            8.65364461888093       -4.24286099202785       -4.69093434752619
H            8.65395337781044       -5.38649986280336       -3.34957809593654
H           10.92676478646515       -4.61179811775142       -2.68950917114411
H           10.92647630683699       -3.46798402850648       -4.03060957930674
H           10.71788359816518       -5.35605030458602       -5.64116314254400
H           10.71803881811284       -6.50011929763868       -4.29990114129685
H           12.99234336195082       -5.73074869589938       -3.64353212548802
H           12.99218824509022       -4.58597985308202       -4.98431517772385
H           12.79965224490330       -7.62414213293882       -5.25973110552715
H           14.23300286079980       -6.64964598883460       -5.58745111196407
H           12.79936877032395       -6.47904890723793       -6.60092115811997

          :  Hamiltonian                  GFN2-xTB          :
         :: total energy             -42.484460162382 Eh    ::
         :: gradient norm              0.000207710965 Eh/a0 ::
         :: HOMO-LUMO gap              5.290460517995 eV    ::
         :: SCC energy               -43.108419461266 Eh    ::
         :: -> dispersion             -0.024725386906 Eh    ::
         :: repulsion energy           0.624277436664 Eh    ::

    * Orbital Energies and Occupations

         #    Occupation            Energy/Eh            Energy/eV
      -------------------------------------------------------------
         1        2.0000           -0.8975078             -24.4224
       ...           ...                  ...                  ...
        28        2.0000           -0.5370190             -14.6130
        29        2.0000           -0.5369701             -14.6117
        30        2.0000           -0.5241073             -14.2617
        31        2.0000           -0.5196852             -14.1414
        32        2.0000           -0.5093774             -13.8609
        33        2.0000           -0.5046564             -13.7324
        34        2.0000           -0.5027059             -13.6793
        35        2.0000           -0.4895955             -13.3226
        36        2.0000           -0.4869719             -13.2512
        37        2.0000           -0.4747873             -12.9196
        38        2.0000           -0.4731696             -12.8756
        39        2.0000           -0.4663536             -12.6901
        40        2.0000           -0.4619614             -12.5706 (HOMO)
        41                         -0.2675405              -7.2801 (LUMO)
        42                         -0.1642902              -4.4706
        43                         -0.1054208              -2.8686
        44                         -0.1036173              -2.8196
        45                         -0.0613165              -1.6685
        46                         -0.0453323              -1.2336
        47                         -0.0180813              -0.4920
        48                         -0.0096166              -0.2617
        49                          0.0004892               0.0133
        50                          0.0171382               0.4664
        51                          0.0286706               0.7802
       ...                                ...                  ...
        80                          0.2736730               7.4470
      -------------------------------------------------------------
                  HL-Gap            0.1944208 Eh            5.2905 eV

     #   Z          covCN         q      C6AA      α(0)
     1   7 N        3.482    -0.128    23.768     7.241
     2   6 C        3.731    -0.034    21.272     6.584
     3   6 C        3.803    -0.081    22.042     6.684
     4   6 C        3.804    -0.067    21.775     6.643
     5   6 C        3.803    -0.064    21.720     6.635
     6   6 C        3.803    -0.063    21.699     6.632
     7   6 C        3.803    -0.061    21.666     6.627
     8   6 C        3.803    -0.060    21.655     6.625
     9   6 C        3.803    -0.059    21.641     6.623
    10   6 C        3.803    -0.059    21.640     6.623
    11   6 C        3.803    -0.060    21.646     6.624
    12   6 C        3.801    -0.053    21.532     6.607
    13   6 C        3.752    -0.104    22.538     6.770
    14   1 H        0.859     0.270     0.811     1.411
    15   1 H        0.859     0.272     0.802     1.403
    16   1 H        0.859     0.272     0.802     1.403
    17   1 H        0.924     0.107     1.724     2.053
    18   1 H        0.924     0.107     1.724     2.053
    19   1 H        0.924     0.062     2.178     2.308
    20   1 H        0.924     0.062     2.178     2.308
    21   1 H        0.924     0.050     2.319     2.381
    22   1 H        0.924     0.050     2.319     2.382
    23   1 H        0.924     0.041     2.438     2.442
    24   1 H        0.924     0.041     2.437     2.441
    25   1 H        0.924     0.037     2.487     2.466
    26   1 H        0.924     0.037     2.487     2.466
    27   1 H        0.924     0.034     2.532     2.489
    28   1 H        0.924     0.034     2.532     2.488
    29   1 H        0.924     0.033     2.550     2.497
    30   1 H        0.924     0.033     2.550     2.497
    31   1 H        0.924     0.031     2.568     2.506
    32   1 H        0.924     0.031     2.568     2.506
    33   1 H        0.924     0.030     2.581     2.512
    34   1 H        0.924     0.030     2.581     2.512
    35   1 H        0.924     0.031     2.572     2.508
    36   1 H        0.924     0.031     2.572     2.508
    37   1 H        0.924     0.030     2.590     2.517
    38   1 H        0.924     0.030     2.590     2.517
    39   1 H        0.925     0.035     2.521     2.483
    40   1 H        0.925     0.037     2.496     2.470
    41   1 H        0.925     0.035     2.521     2.483

Wiberg/Mayer (AO) data.
largest (>0.10) Wiberg bond orders for each atom

     #   Z sym  total        # sym  WBO       # sym  WBO       # sym  WBO
 ---------------------------------------------------------------------------
     1   7 N    3.675 --     2 C    0.918    14 H    0.913    15 H    0.910
                            16 H    0.910
     2   6 C    3.883 --     3 C    1.008    17 H    0.967    18 H    0.967
                             1 N    0.918
     3   6 C    3.979 --     2 C    1.008     4 C    0.993    20 H    0.972
                            19 H    0.972
     4   6 C    3.987 --     5 C    1.004     3 C    0.993    21 H    0.976
                            22 H    0.976
     5   6 C    3.992 --     6 C    1.005     4 C    1.004    24 H    0.977
                            23 H    0.977
     6   6 C    3.994 --     7 C    1.006     5 C    1.005    25 H    0.977
                            26 H    0.977
     7   6 C    3.995 --     8 C    1.006     6 C    1.006    28 H    0.977
                            27 H    0.977
     8   6 C    3.996 --     9 C    1.007     7 C    1.006    30 H    0.977
                            29 H    0.977
     9   6 C    3.996 --    10 C    1.007     8 C    1.007    31 H    0.977
                            32 H    0.977
    10   6 C    3.997 --    11 C    1.007     9 C    1.007    33 H    0.977
                            34 H    0.977
    11   6 C    3.997 --    12 C    1.008    10 C    1.007    36 H    0.977
                            35 H    0.977
    12   6 C    3.997 --    13 C    1.019    11 C    1.008    37 H    0.979
                            38 H    0.979
    13   6 C    3.996 --    12 C    1.019    39 H    0.988    41 H    0.988
                            40 H    0.987
    14   1 H    0.927 --     1 N    0.913
    15   1 H    0.926 --     1 N    0.910
    16   1 H    0.926 --     1 N    0.910
    17   1 H    0.989 --     2 C    0.967
    18   1 H    0.989 --     2 C    0.967
    19   1 H    0.996 --     3 C    0.972
    20   1 H    0.996 --     3 C    0.972
    21   1 H    0.997 --     4 C    0.976
    22   1 H    0.997 --     4 C    0.976
    23   1 H    0.998 --     5 C    0.977
    24   1 H    0.998 --     5 C    0.977
    25   1 H    0.999 --     6 C    0.977
    26   1 H    0.999 --     6 C    0.977
    27   1 H    0.999 --     7 C    0.977
    28   1 H    0.999 --     7 C    0.977
    29   1 H    0.999 --     8 C    0.977
    30   1 H    0.999 --     8 C    0.977
    31   1 H    0.999 --     9 C    0.977
    32   1 H    0.999 --     9 C    0.977
    33   1 H    0.999 --    10 C    0.977
    34   1 H    0.999 --    10 C    0.977
    35   1 H    0.999 --    11 C    0.977
    36   1 H    0.999 --    11 C    0.977
    37   1 H    0.999 --    12 C    0.979
    38   1 H    0.999 --    12 C    0.979
    39   1 H    0.999 --    13 C    0.988
    40   1 H    0.998 --    13 C    0.987
    41   1 H    0.999 --    13 C    0.988
 ---------------------------------------------------------------------------

molecular dipole:
                 x           y           z       tot (Debye)
 q only:        2.748      -0.432      -0.218
   full:        2.375      -0.324      -0.127       6.101

           -------------------------------------------------
          | TOTAL ENERGY              -42.484460162382 Eh   |
          | GRADIENT NORM               0.000207710965 Eh/α |
          | HOMO-LUMO GAP               5.290460517995 eV   |
           -------------------------------------------------

 * finished run on 2023/01/23 at 20:35:28.096
