   * xtb version 6.5.1 (fef0646) compiled by 'conda@b96dff2e9fd6' on 2023-01-04
          program call               : xtb init.xyz --opt -c 1 -u 0 -P 16 --alpb water

   ID    Z sym.   atoms
    1    7 N      1
    2    6 C      2-13
    3    1 H      14-41

      * Solvation model:               ALPB
        Solvent                        water
        Solvent mass                       1.8000E+01 g/mol
          :  Hamiltonian                  GFN2-xTB          :
 * total energy  :   -42.5924333 Eh     change       -0.1490008E-10 Eh
 * total energy  :   -42.5950244 Eh     change       -0.2591109E-02 Eh
 * total energy  :   -42.5956265 Eh     change       -0.6020957E-03 Eh
 * total energy  :   -42.5958277 Eh     change       -0.2011500E-03 Eh
 * total energy  :   -42.5958719 Eh     change       -0.4423830E-04 Eh
 * total energy  :   -42.5958838 Eh     change       -0.1188706E-04 Eh
 * total energy  :   -42.5958860 Eh     change       -0.2143123E-05 Eh
   *** GEOMETRY OPTIMIZATION CONVERGED AFTER 7 ITERATIONS ***

 final structure:
================
41
 xtb: 6.5.1 (fef0646)
N            0.93008307892402        0.04311820683145       -0.06529269443149
C            2.41397552047853        0.05654944422766       -0.05637863412684
C            2.93844654336419        0.77578311966166        1.18093446191767
C            4.46649086476475        0.78776766221380        1.19978488694906
C            5.00817222854181        1.50511409042635        2.43459706069240
C            6.53462626616670        1.51964604286990        2.46160075180034
C            7.07749056295865        2.23581658422591        3.69606894836691
C            8.60395891649830        2.25135599208165        3.72546564734581
C            9.14645506627648        2.96737840650328        4.96002640539017
C           10.67299665290453        2.98422047157627        4.99163563474859
C           11.21211820129610        3.70092575649512        6.22729222715305
C           12.73849086609750        3.72095879812900        6.26435919057138
C           13.26589033177496        4.43840497993132        7.50139957889954
H            0.57451608135675       -0.43941823364741       -0.89847249599386
H            0.56876025674170        1.00429953034816       -0.06063981097730
H            0.57664116262000       -0.43704185119777        0.77087171350969
H            2.77280508376469        0.56057309205148       -0.95356337977603
H            2.78137960483808       -0.96944645595742       -0.06747121210944
H            2.58577841043361        0.27859519415015        2.08558218446147
H            2.58426649783980        1.80740655197439        1.19764908265664
H            4.84499055462345        1.28777781708788        0.30628365336532
H            4.84576393824843       -0.23582395399095        1.19124030632995
H            4.64354811589996        1.01055157628198        3.33769638643571
H            4.64458602702879        2.53498544601207        2.45168336546959
H            6.91216264591804        2.01819801840383        1.56570107134886
H            6.91095492691555        0.49397907502518        2.45057709011153
H            6.70814241938039        1.74008249603034        4.59704991235043
H            6.70963208818136        3.26458483110369        3.71198992126091
H            8.97983393113762        2.74928384674885        2.82837178822495
H            8.97830226808447        1.22485051116717        3.71320231899100
H            8.77493947207122        2.47086878306450        5.85970966606406
H            8.77644002844403        3.99540968242137        4.97484485706302
H           11.04879134493986        3.48206617232486        4.09440480991141
H           11.04729070735909        1.95764860381124        4.97925130356220
H           10.83840297129989        3.20348608931189        7.12558329996584
H           10.83987733313917        4.72820402741494        6.24057902296023
H           13.11501667120516        4.21969912405747        5.36828361000354
H           13.11352020385207        2.69494871763130        6.25321534294162
H           12.91960365524855        5.46946807666628        7.52070009410688
H           14.35321014233621        4.44144789354237        7.50871634665846
H           12.91791835704548        3.94435578298885        8.40594628582667

          :  Hamiltonian                  GFN2-xTB          :
         :: total energy             -42.595885961067 Eh    ::
         :: gradient norm              0.000199715335 Eh/a0 ::
         :: HOMO-LUMO gap              9.791395362727 eV    ::
         :: SCC energy               -43.221209974720 Eh    ::
         :: -> dispersion             -0.024822526594 Eh    ::
         :: -> Gsolv                  -0.118795544091 Eh    ::
         :: repulsion energy           0.625642354677 Eh    ::

    * Orbital Energies and Occupations

         #    Occupation            Energy/Eh            Energy/eV
      -------------------------------------------------------------
         1        2.0000           -0.6923384             -18.8395
       ...           ...                  ...                  ...
        28        2.0000           -0.4623804             -12.5820
        29        2.0000           -0.4493684             -12.2279
        30        2.0000           -0.4488780             -12.2146
        31        2.0000           -0.4397501             -11.9662
        32        2.0000           -0.4364109             -11.8753
        33        2.0000           -0.4357946             -11.8586
        34        2.0000           -0.4300503             -11.7023
        35        2.0000           -0.4264365             -11.6039
        36        2.0000           -0.4262106             -11.5978
        37        2.0000           -0.4198186             -11.4238
        38        2.0000           -0.4166720             -11.3382
        39        2.0000           -0.4161737             -11.3247
        40        2.0000           -0.4118916             -11.2081 (HOMO)
        41                         -0.0520644              -1.4167 (LUMO)
        42                          0.0317251               0.8633
        43                          0.0545560               1.4845
        44                          0.0765175               2.0821
        45                          0.0955362               2.5997
        46                          0.1021326               2.7792
        47                          0.1065582               2.8996
        48                          0.1120774               3.0498
        49                          0.1137749               3.0960
        50                          0.1212084               3.2982
        51                          0.1255415               3.4162
       ...                                ...                  ...
        80                          0.3261920               8.8761
      -------------------------------------------------------------
                  HL-Gap            0.3598272 Eh            9.7914 eV

     #   Z          covCN         q      C6AA      α(0)
     1   7 N        3.484    -0.162    24.494     7.351
     2   6 C        3.733    -0.038    21.345     6.594
     3   6 C        3.803    -0.086    22.137     6.698
     4   6 C        3.804    -0.071    21.853     6.655
     5   6 C        3.803    -0.067    21.786     6.645
     6   6 C        3.803    -0.065    21.738     6.638
     7   6 C        3.803    -0.063    21.712     6.634
     8   6 C        3.803    -0.062    21.695     6.631
     9   6 C        3.803    -0.062    21.689     6.630
    10   6 C        3.803    -0.062    21.688     6.630
    11   6 C        3.803    -0.063    21.702     6.632
    12   6 C        3.801    -0.058    21.609     6.618
    13   6 C        3.752    -0.111    22.674     6.790
    14   1 H        0.859     0.316     0.667     1.280
    15   1 H        0.859     0.309     0.688     1.299
    16   1 H        0.859     0.309     0.688     1.300
    17   1 H        0.925     0.107     1.722     2.052
    18   1 H        0.925     0.107     1.723     2.053
    19   1 H        0.924     0.066     2.126     2.280
    20   1 H        0.924     0.066     2.127     2.281
    21   1 H        0.924     0.043     2.408     2.427
    22   1 H        0.924     0.043     2.408     2.426
    23   1 H        0.924     0.037     2.493     2.469
    24   1 H        0.924     0.037     2.494     2.469
    25   1 H        0.924     0.031     2.568     2.506
    26   1 H        0.924     0.031     2.567     2.506
    27   1 H        0.924     0.031     2.576     2.510
    28   1 H        0.924     0.031     2.577     2.510
    29   1 H        0.924     0.030     2.592     2.518
    30   1 H        0.924     0.030     2.592     2.518
    31   1 H        0.924     0.030     2.586     2.515
    32   1 H        0.924     0.030     2.586     2.515
    33   1 H        0.924     0.029     2.598     2.521
    34   1 H        0.924     0.029     2.598     2.521
    35   1 H        0.924     0.031     2.576     2.510
    36   1 H        0.924     0.031     2.577     2.510
    37   1 H        0.924     0.030     2.591     2.517
    38   1 H        0.924     0.030     2.592     2.518
    39   1 H        0.925     0.036     2.506     2.475
    40   1 H        0.925     0.035     2.517     2.481
    41   1 H        0.925     0.036     2.505     2.475

Wiberg/Mayer (AO) data.
largest (>0.10) Wiberg bond orders for each atom

     #   Z sym  total        # sym  WBO       # sym  WBO       # sym  WBO
 ---------------------------------------------------------------------------
     1   7 N    3.653 --     2 C    0.966    16 H    0.890    15 H    0.890
                            14 H    0.887
     2   6 C    3.927 --     3 C    1.011    17 H    0.966    18 H    0.966
                             1 N    0.966
     3   6 C    3.990 --     2 C    1.011     4 C    1.004    20 H    0.973
                            19 H    0.973
     4   6 C    3.995 --     5 C    1.007     3 C    1.004    21 H    0.977
                            22 H    0.976
     5   6 C    3.996 --     4 C    1.007     6 C    1.007    24 H    0.977
                            23 H    0.977
     6   6 C    3.996 --     7 C    1.007     5 C    1.007    25 H    0.977
                            26 H    0.977
     7   6 C    3.996 --     8 C    1.007     6 C    1.007    28 H    0.977
                            27 H    0.977
     8   6 C    3.996 --     9 C    1.007     7 C    1.007    29 H    0.978
                            30 H    0.978
     9   6 C    3.997 --    10 C    1.007     8 C    1.007    32 H    0.977
                            31 H    0.977
    10   6 C    3.997 --    11 C    1.007     9 C    1.007    34 H    0.978
                            33 H    0.978
    11   6 C    3.997 --    12 C    1.008    10 C    1.007    36 H    0.977
                            35 H    0.977
    12   6 C    3.997 --    13 C    1.019    11 C    1.008    38 H    0.979
                            37 H    0.979
    13   6 C    3.996 --    12 C    1.019    39 H    0.988    41 H    0.988
                            40 H    0.987
    14   1 H    0.900 --     1 N    0.887
    15   1 H    0.905 --     1 N    0.890
    16   1 H    0.905 --     1 N    0.890
    17   1 H    0.989 --     2 C    0.966
    18   1 H    0.989 --     2 C    0.966
    19   1 H    0.996 --     3 C    0.973
    20   1 H    0.996 --     3 C    0.973
    21   1 H    0.998 --     4 C    0.977
    22   1 H    0.998 --     4 C    0.976
    23   1 H    0.999 --     5 C    0.977
    24   1 H    0.999 --     5 C    0.977
    25   1 H    0.999 --     6 C    0.977
    26   1 H    0.999 --     6 C    0.977
    27   1 H    0.999 --     7 C    0.977
    28   1 H    0.999 --     7 C    0.977
    29   1 H    0.999 --     8 C    0.978
    30   1 H    0.999 --     8 C    0.978
    31   1 H    0.999 --     9 C    0.977
    32   1 H    0.999 --     9 C    0.977
    33   1 H    0.999 --    10 C    0.978
    34   1 H    0.999 --    10 C    0.978
    35   1 H    0.999 --    11 C    0.977
    36   1 H    0.999 --    11 C    0.977
    37   1 H    0.999 --    12 C    0.979
    38   1 H    0.999 --    12 C    0.979
    39   1 H    0.999 --    13 C    0.988
    40   1 H    0.998 --    13 C    0.987
    41   1 H    0.999 --    13 C    0.988
 ---------------------------------------------------------------------------

molecular dipole:
                 x           y           z       tot (Debye)
 q only:        1.829       0.061      -0.160
   full:        1.872       0.107      -0.081       4.770

           -------------------------------------------------
          | TOTAL ENERGY              -42.595885961067 Eh   |
          | GRADIENT NORM               0.000199715335 Eh/α |
          | HOMO-LUMO GAP               9.791395362727 eV   |
           -------------------------------------------------

 * finished run on 2023/01/24 at 16:38:25.268
