   * xtb version 6.5.1 (fef0646) compiled by 'conda@b96dff2e9fd6' on 2023-01-04
          program call               : xtb init.xyz --opt -c 1 -u 0 -P 16

   ID    Z sym.   atoms
    1    7 N      1
    2    6 C      2-21
    3   16 S      22-25
    4    1 H      26-45

          :  Hamiltonian                  GFN2-xTB          :
 * total energy  :   -68.4820635 Eh     change       -0.7938752E-09 Eh
 * total energy  :   -68.4901413 Eh     change       -0.8077765E-02 Eh
 * total energy  :   -68.4930990 Eh     change       -0.2957734E-02 Eh
 * total energy  :   -68.4941244 Eh     change       -0.1025387E-02 Eh
 * total energy  :   -68.4952497 Eh     change       -0.1125334E-02 Eh
 * total energy  :   -68.4961527 Eh     change       -0.9029826E-03 Eh
 * total energy  :   -68.4971102 Eh     change       -0.9575391E-03 Eh
 * total energy  :   -68.4979879 Eh     change       -0.8776467E-03 Eh
 * total energy  :   -68.4986031 Eh     change       -0.6152176E-03 Eh
 * total energy  :   -68.4990669 Eh     change       -0.4638076E-03 Eh
 * total energy  :   -68.5021804 Eh     change       -0.2082158E-04 Eh
 * total energy  :   -68.5022137 Eh     change       -0.3327228E-04 Eh
 * total energy  :   -68.5022286 Eh     change       -0.1493689E-04 Eh
 * total energy  :   -68.5022417 Eh     change       -0.1308479E-04 Eh
 * total energy  :   -68.5022520 Eh     change       -0.1032528E-04 Eh
 * total energy  :   -68.5022598 Eh     change       -0.7822184E-05 Eh
 * total energy  :   -68.5022674 Eh     change       -0.7602619E-05 Eh
 * total energy  :   -68.5022726 Eh     change       -0.5191279E-05 Eh
 * total energy  :   -68.5022761 Eh     change       -0.3480176E-05 Eh
   *** GEOMETRY OPTIMIZATION CONVERGED AFTER 44 ITERATIONS ***

 final structure:
================
45
 xtb: 6.5.1 (fef0646)
N            3.42542157988053        0.91181608345843        3.39871721269356
C            2.69106049728019        1.61616882892347        2.31119578877979
C            3.61576247447373        2.66703615022198        1.68717233051613
C            4.81546769738261        2.02423488513418        1.07532730338542
C            5.06091897025893        1.72527041899704       -0.22772598000389
C            6.26619791929415        1.03033096256866       -0.43484953563794
C            6.96704024058938        0.76694407135786        0.71409039762405
C            8.19594741152098        0.08697073169003        0.88651500204478
C            8.88956832506783       -0.15927606333376        2.05140806820469
C           10.08211801542594       -0.86709706955380        1.87489846976365
C           10.98426143430639       -1.23676975028332        3.00145214553922
C           10.31781862783765       -1.17703548926432        0.54118521567338
C           11.39496584273848       -1.87857607091882       -0.05751181979931
C           11.57074607860150       -2.12083066888126       -1.40605063441259
C           12.71872123183117       -2.85052606677231       -1.70379145569136
C           13.45790103851743       -3.19173167439665       -0.58877586077975
C           14.66634950925199       -3.94310691606270       -0.48614234320900
C           15.57350955247806       -4.30931033276345       -1.46254153353312
C           15.49754325994948       -3.95056806275580       -2.90832603527024
C           16.63956849138497       -5.06749025851691       -0.93027241646503
C           16.55092663113702       -5.27130257992087        0.40979753106580
S           15.15814653267081       -4.53808819399503        1.08165638546112
S           12.70444546467134       -2.58190128191463        0.85338392441870
S            9.04270330277679       -0.57680265993360       -0.48458262550783
S            6.12966073804560        1.43940272122544        2.09804443340469
H            2.95727857913486        0.05004668213426        3.69297687131230
H            3.54134687371748        1.52741103035609        4.21109745327243
H            4.39632821040816        0.70305138326436        3.02892665753485
H            1.79022747350752        2.07739695298937        2.71605639831143
H            2.40852772912800        0.88203004539106        1.55563316263024
H            3.91293273762723        3.39342064212818        2.44644528823763
H            3.06357294062096        3.19870662328954        0.91247580450732
H            4.39761382358203        2.00026302424255       -1.02802469964154
H            6.62528387515523        0.72500424763347       -1.40016147031277
H            8.54002164475202        0.17447580153847        3.01468430344759
H           10.58845917687587       -0.85392498276949        3.93840762210093
H           11.98131245564622       -0.82591444614392        2.84806092330244
H           11.08310214361635       -2.31913393192109        3.07776096252596
H           10.87434222556576       -1.77554984557566       -2.15070699553216
H           12.98151942793090       -3.13954244218465       -2.70242851162038
H           15.26345558362020       -2.89499241271032       -3.03516711820460
H           14.72998942708280       -4.53879340428919       -3.41182580420649
H           16.45030455727979       -4.15756126614200       -3.38861172472426
H           17.44593400867519       -5.44612061101834       -1.53272400744934
H           17.22345623868217       -5.80962480450134        1.04715091623154

          :  Hamiltonian                  GFN2-xTB          :
         :: total energy             -68.502276121951 Eh    ::
         :: gradient norm              0.000435972577 Eh/a0 ::
         :: HOMO-LUMO gap              1.316513552277 eV    ::
         :: SCC energy               -69.526437000878 Eh    ::
         :: -> dispersion             -0.055978176124 Eh    ::
         :: repulsion energy           1.024804113939 Eh    ::

    * Orbital Energies and Occupations

         #    Occupation            Energy/Eh            Energy/eV
      -------------------------------------------------------------
         1        2.0000           -0.8682702             -23.6268
       ...           ...                  ...                  ...
        52        2.0000           -0.5235957             -14.2478
        53        2.0000           -0.5178359             -14.0910
        54        2.0000           -0.5150858             -14.0162
        55        2.0000           -0.5139340             -13.9849
        56        2.0000           -0.5120983             -13.9349
        57        2.0000           -0.5046143             -13.7313
        58        2.0000           -0.4995559             -13.5936
        59        2.0000           -0.4893360             -13.3155
        60        2.0000           -0.4748178             -12.9204
        61        2.0000           -0.4660837             -12.6828
        62        2.0000           -0.4561761             -12.4132
        63        2.0000           -0.4495354             -12.2325
        64        2.0000           -0.4238988             -11.5349 (HOMO)
        65                         -0.3755178             -10.2184 (LUMO)
        66                         -0.3385744              -9.2131
        67                         -0.3325461              -9.0490
        68                         -0.3102448              -8.4422
        69                         -0.2913956              -7.9293
        70                         -0.2846790              -7.7465
        71                         -0.2793395              -7.6012
        72                         -0.2651747              -7.2158
        73                         -0.2527231              -6.8769
        74                         -0.2466507              -6.7117
        75                         -0.2436931              -6.6312
       ...                                ...                  ...
       140                          0.6345901              17.2681
      -------------------------------------------------------------
                  HL-Gap            0.0483810 Eh            1.3165 eV

     #   Z          covCN         q      C6AA      α(0)
     1   7 N        3.482    -0.150    24.225     7.310
     2   6 C        3.733    -0.030    21.199     6.572
     3   6 C        3.821    -0.085    22.112     6.692
     4   6 C        2.983    -0.010    28.256     8.719
     5   6 C        3.089    -0.042    28.947     8.819
     6   6 C        3.104    -0.054    29.202     8.855
     7   6 C        3.018     0.034    27.208     8.556
     8   6 C        3.018     0.006    27.862     8.659
     9   6 C        3.102    -0.052    29.159     8.849
    10   6 C        3.120     0.001    27.818     8.638
    11   6 C        3.756    -0.112    22.694     6.792
    12   6 C        3.017     0.022    27.501     8.602
    13   6 C        3.032     0.015    27.651     8.625
    14   6 C        3.105    -0.044    28.953     8.817
    15   6 C        3.097    -0.052    29.166     8.851
    16   6 C        3.028     0.029    27.323     8.574
    17   6 C        3.033     0.004    27.891     8.662
    18   6 C        3.132     0.005    27.697     8.615
    19   6 C        3.755    -0.107    22.596     6.778
    20   6 C        3.123    -0.049    29.021     8.822
    21   6 C        2.931    -0.014    28.372     8.735
    22  16 S        2.376    -0.019   141.821    20.043
    23  16 S        2.402    -0.020   141.863    20.046
    24  16 S        2.344    -0.038   142.635    20.101
    25  16 S        2.363    -0.118   145.989    20.336
    26   1 H        0.859     0.261     0.843     1.438
    27   1 H        0.859     0.265     0.827     1.425
    28   1 H        0.885     0.285     0.757     1.362
    29   1 H        0.925     0.101     1.772     2.082
    30   1 H        0.924     0.105     1.743     2.064
    31   1 H        0.924     0.075     2.030     2.228
    32   1 H        0.925     0.096     1.825     2.113
    33   1 H        0.926     0.053     2.282     2.362
    34   1 H        0.926     0.058     2.219     2.330
    35   1 H        0.926     0.037     2.487     2.466
    36   1 H        0.925     0.053     2.280     2.361
    37   1 H        0.925     0.064     2.156     2.296
    38   1 H        0.925     0.062     2.172     2.305
    39   1 H        0.926     0.046     2.368     2.406
    40   1 H        0.926     0.052     2.291     2.367
    41   1 H        0.925     0.051     2.305     2.374
    42   1 H        0.924     0.053     2.284     2.363
    43   1 H        0.925     0.056     2.242     2.342
    44   1 H        0.926     0.048     2.339     2.391
    45   1 H        0.926     0.055     2.255     2.348

Wiberg/Mayer (AO) data.
largest (>0.10) Wiberg bond orders for each atom

     #   Z sym  total        # sym  WBO       # sym  WBO       # sym  WBO
 ---------------------------------------------------------------------------
     1   7 N    3.658 --     2 C    0.940    26 H    0.917    27 H    0.914
                            28 H    0.825
     2   6 C    3.901 --     3 C    0.991    30 H    0.968    29 H    0.968
                             1 N    0.940
     3   6 C    3.982 --     4 C    1.022     2 C    0.991    31 H    0.964
                            32 H    0.957
     4   6 C    3.886 --     5 C    1.592    25 S    1.085     3 C    1.022
     5   6 C    3.986 --     4 C    1.592     6 C    1.292    33 H    0.960
     6   6 C    3.957 --     7 C    1.502     5 C    1.292    34 H    0.957
     7   6 C    3.937 --     6 C    1.502     8 C    1.195    25 S    1.067
     8   6 C    3.924 --     9 C    1.444     7 C    1.195    24 S    1.103
     9   6 C    3.981 --     8 C    1.444    10 C    1.345    35 H    0.960
    10   6 C    3.967 --    12 C    1.403     9 C    1.345    11 C    1.030
    11   6 C    3.993 --    10 C    1.030    36 H    0.981    37 H    0.963
                            38 H    0.963
    12   6 C    3.934 --    10 C    1.403    13 C    1.204    24 S    1.125
    13   6 C    3.934 --    14 C    1.436    12 C    1.204    23 S    1.116
    14   6 C    3.968 --    13 C    1.436    15 C    1.372    39 H    0.959
    15   6 C    3.977 --    16 C    1.443    14 C    1.372    40 H    0.959
    16   6 C    3.929 --    15 C    1.443    17 C    1.173    23 S    1.146
    17   6 C    3.942 --    18 C    1.456    16 C    1.173    22 S    1.121
    18   6 C    3.964 --    17 C    1.456    20 C    1.281    19 C    1.028
    19   6 C    3.995 --    18 C    1.028    43 H    0.982    41 H    0.972
                            42 H    0.964
    20   6 C    3.984 --    21 C    1.598    18 C    1.281    44 H    0.963
    21   6 C    3.925 --    20 C    1.598    22 S    1.206    45 H    0.969
    22  16 S    2.617 --    21 C    1.206    17 C    1.121
    23  16 S    2.608 --    16 C    1.146    13 C    1.116
    24  16 S    2.561 --    12 C    1.125     8 C    1.103
    25  16 S    2.537 --     4 C    1.085     7 C    1.067
    26   1 H    0.932 --     1 N    0.917
    27   1 H    0.930 --     1 N    0.914
    28   1 H    0.918 --     1 N    0.825
    29   1 H    0.988 --     2 C    0.968
    30   1 H    0.989 --     2 C    0.968
    31   1 H    0.993 --     3 C    0.964
    32   1 H    0.990 --     3 C    0.957
    33   1 H    0.997 --     5 C    0.960
    34   1 H    0.996 --     6 C    0.957
    35   1 H    0.998 --     9 C    0.960
    36   1 H    0.996 --    11 C    0.981
    37   1 H    0.994 --    11 C    0.963
    38   1 H    0.994 --    11 C    0.963
    39   1 H    0.997 --    14 C    0.959
    40   1 H    0.997 --    15 C    0.959
    41   1 H    0.996 --    19 C    0.972
    42   1 H    0.995 --    19 C    0.964
    43   1 H    0.996 --    19 C    0.982
    44   1 H    0.997 --    20 C    0.963
    45   1 H    0.996 --    21 C    0.969
 ---------------------------------------------------------------------------

molecular dipole:
                 x           y           z       tot (Debye)
 q only:        9.391       0.643       4.796
   full:        9.917       0.489       4.321      27.523

           -------------------------------------------------
          | TOTAL ENERGY              -68.502276121951 Eh   |
          | GRADIENT NORM               0.000435972577 Eh/α |
          | HOMO-LUMO GAP               1.316513552277 eV   |
           -------------------------------------------------

 * finished run on 2023/01/23 at 14:00:46.230
