   * xtb version 6.5.1 (fef0646) compiled by 'conda@b96dff2e9fd6' on 2023-01-04
          program call               : xtb init.xyz --opt -c 1 -u 0 -P 16 --alpb water

   ID    Z sym.   atoms
    1    7 N      1
    2    6 C      2-7
    3   16 S      8
    4    1 H      9-18

      * Solvation model:               ALPB
        Solvent                        water
        Solvent mass                       1.8000E+01 g/mol
          :  Hamiltonian                  GFN2-xTB          :
 * total energy  :   -23.7670248 Eh     change       -0.1374652E-09 Eh
 * total energy  :   -23.7692641 Eh     change       -0.2239270E-02 Eh
 * total energy  :   -23.7697243 Eh     change       -0.4602016E-03 Eh
 * total energy  :   -23.7699039 Eh     change       -0.1796085E-03 Eh
 * total energy  :   -23.7700291 Eh     change       -0.1252771E-03 Eh
 * total energy  :   -23.7701171 Eh     change       -0.8794332E-04 Eh
 * total energy  :   -23.7702045 Eh     change       -0.8744163E-04 Eh
 * total energy  :   -23.7703096 Eh     change       -0.1050444E-03 Eh
 * total energy  :   -23.7704281 Eh     change       -0.1185622E-03 Eh
 * total energy  :   -23.7705370 Eh     change       -0.1088704E-03 Eh
 * total energy  :   -23.7709104 Eh     change       -0.3458686E-04 Eh
 * total energy  :   -23.7709333 Eh     change       -0.2289413E-04 Eh
 * total energy  :   -23.7709516 Eh     change       -0.1832522E-04 Eh
 * total energy  :   -23.7709666 Eh     change       -0.1504110E-04 Eh
 * total energy  :   -23.7709765 Eh     change       -0.9863378E-05 Eh
 * total energy  :   -23.7709845 Eh     change       -0.7967837E-05 Eh
 * total energy  :   -23.7709914 Eh     change       -0.6921236E-05 Eh
 * total energy  :   -23.7709967 Eh     change       -0.5292186E-05 Eh
 * total energy  :   -23.7710000 Eh     change       -0.3299840E-05 Eh
   *** GEOMETRY OPTIMIZATION CONVERGED AFTER 23 ITERATIONS ***

 final structure:
================
18
 xtb: 6.5.1 (fef0646)
N            2.67640380022749        1.36322948305835       -0.88658688122126
C            2.52737797653100        0.17743965059596       -0.01499250729019
C            3.11336673870950       -1.06627599122794       -0.68769222568819
C            4.60512556612035       -1.04413946330732       -0.73453634100181
C            5.48672269665033       -1.82484155877752       -0.05845232389590
C            6.84036068274776       -1.51738168181587       -0.34036037337561
C            6.98147418214304       -0.50353637749752       -1.22746564772252
S            5.46385062951615        0.08775782331366       -1.75004337145587
H            2.33596350260287        2.20855098494696       -0.41641035873610
H            2.15400583493451        1.23292510402035       -1.76007058863903
H            3.66918608075933        1.49117808110358       -1.13248692727634
H            1.46970146484663        0.01102933914963        0.18536084273312
H            3.04129967675307        0.35659262084232        0.92891801120703
H            2.71767071665424       -1.15921144769807       -1.69980381777114
H            2.80727955666556       -1.94859563008678       -0.12687400086046
H            5.19563617209691       -2.60479829434103        0.62183021412896
H            7.67480928245581       -2.03354792056740        0.10097321682597
H            7.87898543958527       -0.06197472171161       -1.61373691996081

          :  Hamiltonian                  GFN2-xTB          :
         :: total energy             -23.770999993627 Eh    ::
         :: gradient norm              0.000985206020 Eh/a0 ::
         :: HOMO-LUMO gap              3.918953403903 eV    ::
         :: SCC energy               -24.123492696145 Eh    ::
         :: -> dispersion             -0.013350751642 Eh    ::
         :: -> Gsolv                  -0.118120269086 Eh    ::
         :: repulsion energy           0.352447308772 Eh    ::

    * Orbital Energies and Occupations

         #    Occupation            Energy/Eh            Energy/eV
      -------------------------------------------------------------
         1        2.0000           -0.7389927             -20.1090
       ...           ...                  ...                  ...
        10        2.0000           -0.5600844             -15.2407
        11        2.0000           -0.5440608             -14.8046
        12        2.0000           -0.5301839             -14.4270
        13        2.0000           -0.5022035             -13.6657
        14        2.0000           -0.4947415             -13.4626
        15        2.0000           -0.4868895             -13.2489
        16        2.0000           -0.4711608             -12.8209
        17        2.0000           -0.4688034             -12.7568
        18        2.0000           -0.4594072             -12.5011
        19        2.0000           -0.4494793             -12.2310
        20        2.0000           -0.4494485             -12.2301
        21        2.0000           -0.4012017             -10.9173
        22        2.0000           -0.3919873             -10.6665 (HOMO)
        23                         -0.2479684              -6.7476 (LUMO)
        24                         -0.2125618              -5.7841
        25                         -0.1710905              -4.6556
        26                         -0.1247812              -3.3955
        27                         -0.0399795              -1.0879
        28                         -0.0086117              -0.2343
        29                          0.0138534               0.3770
        30                          0.0215619               0.5867
        31                          0.0768444               2.0910
        32                          0.0845482               2.3007
        33                          0.1172855               3.1915
       ...                                ...                  ...
        47                          0.7010997              19.0779
      -------------------------------------------------------------
                  HL-Gap            0.1440189 Eh            3.9190 eV

     #   Z          covCN         q      C6AA      α(0)
     1   7 N        3.485    -0.162    24.501     7.352
     2   6 C        3.732    -0.040    21.390     6.601
     3   6 C        3.822    -0.094    22.278     6.717
     4   6 C        2.984     0.022    27.515     8.604
     5   6 C        3.123    -0.062    29.357     8.873
     6   6 C        3.134    -0.049    28.991     8.814
     7   6 C        2.934    -0.031    28.777     8.798
     8  16 S        2.357    -0.032   142.390    20.084
     9   1 H        0.859     0.320     0.655     1.268
    10   1 H        0.859     0.314     0.672     1.284
    11   1 H        0.859     0.302     0.706     1.316
    12   1 H        0.925     0.124     1.581     1.966
    13   1 H        0.925     0.114     1.659     2.014
    14   1 H        0.924     0.102     1.770     2.081
    15   1 H        0.925     0.091     1.874     2.141
    16   1 H        0.926     0.042     2.426     2.436
    17   1 H        0.926     0.017     2.774     2.604
    18   1 H        0.926     0.023     2.685     2.562

Wiberg/Mayer (AO) data.
largest (>0.10) Wiberg bond orders for each atom

     #   Z sym  total        # sym  WBO       # sym  WBO       # sym  WBO
 ---------------------------------------------------------------------------
     1   7 N    3.650 --     2 C    0.973    10 H    0.886     9 H    0.883
                            11 H    0.875
     2   6 C    3.929 --     3 C    0.995     1 N    0.973    13 H    0.965
                            12 H    0.962
     3   6 C    3.986 --     4 C    1.025     2 C    0.995    15 H    0.960
                            14 H    0.954
     4   6 C    3.946 --     5 C    1.616     8 S    1.145     3 C    1.025
                             7 C    0.117
     5   6 C    3.987 --     4 C    1.616     6 C    1.260    16 H    0.963
     6   6 C    3.990 --     7 C    1.648     5 C    1.260    17 H    0.965
     7   6 C    3.954 --     6 C    1.648     8 S    1.174    18 H    0.973
                             4 C    0.117
     8  16 S    2.602 --     7 C    1.174     4 C    1.145
     9   1 H    0.897 --     1 N    0.883
    10   1 H    0.901 --     1 N    0.886
    11   1 H    0.908 --     1 N    0.875
    12   1 H    0.984 --     2 C    0.962
    13   1 H    0.987 --     2 C    0.965
    14   1 H    0.990 --     3 C    0.954
    15   1 H    0.992 --     3 C    0.960
    16   1 H    0.998 --     5 C    0.963
    17   1 H    0.999 --     6 C    0.965
    18   1 H    0.999 --     7 C    0.973
 ---------------------------------------------------------------------------

molecular dipole:
                 x           y           z       tot (Debye)
 q only:        4.396       2.267      -1.484
   full:        5.194       1.910      -1.438      14.534

           -------------------------------------------------
          | TOTAL ENERGY              -23.770999993627 Eh   |
          | GRADIENT NORM               0.000985206020 Eh/α |
          | HOMO-LUMO GAP               3.918953403903 eV   |
           -------------------------------------------------

 * finished run on 2023/01/24 at 14:57:44.133
