   * xtb version 6.5.1 (fef0646) compiled by 'conda@b96dff2e9fd6' on 2023-01-04
          program call               : xtb init.xyz --opt -c 0 -u 0 -P 16

   ID    Z sym.   atoms
    1    7 N      1
    2    6 C      2-6
    3   17 Cl     7
    4    1 H      8-19

          :  Hamiltonian                  GFN2-xTB          :
 * total energy  :   -24.2913457 Eh     change       -0.3710454E-10 Eh
 * total energy  :   -24.2969066 Eh     change       -0.5560870E-02 Eh
 * total energy  :   -24.3012274 Eh     change       -0.4320870E-02 Eh
 * total energy  :   -24.3037246 Eh     change       -0.2497165E-02 Eh
 * total energy  :   -24.3055598 Eh     change       -0.1835179E-02 Eh
 * total energy  :   -24.3069748 Eh     change       -0.1415020E-02 Eh
 * total energy  :   -24.3075364 Eh     change       -0.5616341E-03 Eh
 * total energy  :   -24.3077095 Eh     change       -0.1730315E-03 Eh
 * total energy  :   -24.3077903 Eh     change       -0.8088962E-04 Eh
 * total energy  :   -24.3078257 Eh     change       -0.3534786E-04 Eh
 * total energy  :   -24.3078543 Eh     change       -0.2865317E-04 Eh
 * total energy  :   -24.3078656 Eh     change       -0.1122006E-04 Eh
 * total energy  :   -24.3078733 Eh     change       -0.7725927E-05 Eh
 * total energy  :   -24.3078769 Eh     change       -0.3598944E-05 Eh
   *** GEOMETRY OPTIMIZATION CONVERGED AFTER 14 ITERATIONS ***

 final structure:
================
19
 xtb: 6.5.1 (fef0646)
N            2.01024967909860        0.06310842320159        0.20380385862622
C            0.85332375607952        0.17426593206433       -0.68996531640869
C            0.00721143654945       -1.10942910654382       -0.62577829438021
C           -1.19596097078536       -0.75119376626064        0.24385432354343
C           -1.46974755761119        0.70023274265380       -0.13236180898810
C           -0.06941176609368        1.30880563309477       -0.20550301292137
Cl           1.32020541970765       -0.45818067575914        2.99834820948534
H            2.62326519730909       -0.69215940461397       -0.08479397493757
H            1.59326079429640       -0.22077466968132        1.65982977767690
H            2.54039739694016        0.92815899286303        0.21894661957453
H            1.18629423165417        0.35878863666481       -1.72240153739171
H            0.57828932567188       -1.93951701381393       -0.21404433742231
H           -0.32485288759693       -1.38278544955388       -1.62808797322505
H           -0.92231334412460       -0.81379203130274        1.29583790675522
H           -2.04819270481119       -1.40308598196299        0.06123878662674
H           -2.10030656215022        1.21099791556948        0.59260949664192
H           -1.95614736926348        0.74887815776006       -1.10857062661305
H            0.24632821366928        1.61188071054000        0.79260502943596
H           -0.03013228853957        2.17805095508060       -0.86074712607824

          :  Hamiltonian                  GFN2-xTB          :
         :: total energy             -24.307876894245 Eh    ::
         :: gradient norm              0.000660188988 Eh/a0 ::
         :: HOMO-LUMO gap              9.195323479122 eV    ::
         :: SCC energy               -24.574314836423 Eh    ::
         :: -> dispersion             -0.013291780879 Eh    ::
         :: repulsion energy           0.266366430000 Eh    ::

    * Orbital Energies and Occupations

         #    Occupation            Energy/Eh            Energy/eV
      -------------------------------------------------------------
         1        2.0000           -1.0143484             -27.6018
       ...           ...                  ...                  ...
        10        2.0000           -0.5318004             -14.4710
        11        2.0000           -0.5087202             -13.8430
        12        2.0000           -0.4980595             -13.5529
        13        2.0000           -0.4902584             -13.3406
        14        2.0000           -0.4598753             -12.5138
        15        2.0000           -0.4542535             -12.3609
        16        2.0000           -0.4469321             -12.1616
        17        2.0000           -0.4450560             -12.1106
        18        2.0000           -0.4419742             -12.0267
        19        2.0000           -0.4258634             -11.5883
        20        2.0000           -0.3954481             -10.7607
        21        2.0000           -0.3913577             -10.6494
        22        2.0000           -0.3907880             -10.6339 (HOMO)
        23                         -0.0528661              -1.4386 (LUMO)
        24                          0.0146540               0.3988
        25                          0.0481387               1.3099
        26                          0.0547002               1.4885
        27                          0.0706138               1.9215
        28                          0.0712052               1.9376
        29                          0.0760871               2.0704
        30                          0.0767469               2.0884
        31                          0.0861247               2.3436
        32                          0.0976493               2.6572
        33                          0.1262760               3.4361
       ...                                ...                  ...
        45                          0.3284112               8.9365
      -------------------------------------------------------------
                  HL-Gap            0.3379219 Eh            9.1953 eV

     #   Z          covCN         q      C6AA      α(0)
     1   7 N        2.716    -0.303    27.802     7.831
     2   6 C        3.796     0.048    19.774     6.332
     3   6 C        3.827    -0.071    21.841     6.650
     4   6 C        3.829    -0.067    21.763     6.638
     5   6 C        3.827    -0.059    21.606     6.614
     6   6 C        3.826    -0.075    21.912     6.661
     7  17 Cl       0.835    -0.501   115.704    16.455
     8   1 H        0.860     0.166     1.299     1.786
     9   1 H        0.918     0.334     0.617     1.228
    10   1 H        0.860     0.166     1.298     1.785
    11   1 H        0.923     0.015     2.809     2.621
    12   1 H        0.925     0.047     2.363     2.404
    13   1 H        0.924     0.038     2.476     2.461
    14   1 H        0.925     0.062     2.179     2.308
    15   1 H        0.925     0.036     2.506     2.476
    16   1 H        0.925     0.039     2.460     2.453
    17   1 H        0.924     0.033     2.547     2.496
    18   1 H        0.925     0.060     2.203     2.321
    19   1 H        0.925     0.034     2.534     2.489

Wiberg/Mayer (AO) data.
largest (>0.10) Wiberg bond orders for each atom

     #   Z sym  total        # sym  WBO       # sym  WBO       # sym  WBO
 ---------------------------------------------------------------------------
     1   7 N    3.257 --     2 C    0.992    10 H    0.957     8 H    0.957
                             9 H    0.224
     2   6 C    3.971 --     1 N    0.992     3 C    0.991     6 C    0.990
                            11 H    0.970
     3   6 C    3.995 --     4 C    1.007     2 C    0.991    13 H    0.980
                            12 H    0.976
     4   6 C    3.994 --     5 C    1.008     3 C    1.007    15 H    0.979
                            14 H    0.975
     5   6 C    3.997 --     4 C    1.008     6 C    1.006    17 H    0.980
                            16 H    0.979
     6   6 C    3.994 --     5 C    1.006     2 C    0.990    19 H    0.982
                            18 H    0.974
     7  17 Cl   0.754 --     9 H    0.658
     8   1 H    0.973 --     1 N    0.957
     9   1 H    0.889 --     7 Cl   0.658     1 N    0.224
    10   1 H    0.972 --     1 N    0.957
    11   1 H    1.000 --     2 C    0.970
    12   1 H    0.998 --     3 C    0.976
    13   1 H    0.999 --     3 C    0.980
    14   1 H    0.996 --     4 C    0.975
    15   1 H    0.999 --     4 C    0.979
    16   1 H    0.998 --     5 C    0.979
    17   1 H    0.999 --     5 C    0.980
    18   1 H    0.996 --     6 C    0.974
    19   1 H    0.999 --     6 C    0.982
 ---------------------------------------------------------------------------

molecular dipole:
                 x           y           z       tot (Debye)
 q only:        0.187       0.337      -1.851
   full:        0.403       0.324      -1.710       4.541

           -------------------------------------------------
          | TOTAL ENERGY              -24.307876894245 Eh   |
          | GRADIENT NORM               0.000660188988 Eh/α |
          | HOMO-LUMO GAP               9.195323479122 eV   |
           -------------------------------------------------

 * finished run on 2023/01/23 at 13:42:18.185
