   * xtb version 6.5.1 (fef0646) compiled by 'conda@b96dff2e9fd6' on 2023-01-04
          program call               : xtb init.xyz --opt -c 0 -u 0 -P 16 --input xtb.inp

   ID    Z sym.   atoms
    1    7 N      1
    2    6 C      2-8
    3   17 Cl     9
    4    1 H      10-25

          :  Hamiltonian                  GFN2-xTB          :
 * total energy  :   -30.6121538 Eh     change       -0.6168079E-09 Eh
 * total energy  :   -30.6119260 Eh     change        0.2278311E-03 Eh
 * total energy  :   -30.6172733 Eh     change       -0.5347330E-02 Eh
 * total energy  :   -30.6193607 Eh     change       -0.2087326E-02 Eh
 * total energy  :   -30.6224172 Eh     change       -0.3056514E-02 Eh
 * total energy  :   -30.6262214 Eh     change       -0.3804219E-02 Eh
 * total energy  :   -30.6325767 Eh     change       -0.6355313E-02 Eh
 * total energy  :   -30.6341389 Eh     change       -0.1562148E-02 Eh
 * total energy  :   -30.6354040 Eh     change       -0.1265153E-02 Eh
 * total energy  :   -30.6367277 Eh     change       -0.1323643E-02 Eh
 * total energy  :   -30.6391828 Eh     change       -0.9697482E-05 Eh
 * total energy  :   -30.6391928 Eh     change       -0.9951387E-05 Eh
 * total energy  :   -30.6391982 Eh     change       -0.5426152E-05 Eh
 * total energy  :   -30.6392024 Eh     change       -0.4247645E-05 Eh
 * total energy  :   -30.6392125 Eh     change       -0.1004307E-04 Eh
 * total energy  :   -30.6392156 Eh     change       -0.3075517E-05 Eh
 * total energy  :   -30.6391980 Eh     change        0.1756051E-04 Eh
 * total energy  :   -30.6392294 Eh     change       -0.3136932E-04 Eh
 * total energy  :   -30.6392338 Eh     change       -0.4471703E-05 Eh
   *** GEOMETRY OPTIMIZATION CONVERGED AFTER 40 ITERATIONS ***

 final structure:
================
25
 xtb: 6.5.1 (fef0646)
N            1.26581860875654       -0.12009103305030       -0.57551215993206
C            2.56579395477107        0.04355309072428        0.07821659351749
C            2.84059722224941       -1.01600094088619        1.15183000983881
C            2.80559738281420       -2.43934272070605        0.59110792353753
C            3.20267320914538       -3.44187866970883        1.67159864656595
C            2.26191132378502       -3.33089773725486        2.86736117404041
C            2.27221218933627       -1.91035695648865        3.42307181185700
C            1.88325517464886       -0.90946274290453        2.33836244273951
Cl          -1.23776297329627        0.30705121842389        0.87836607290760
H            1.15369346915664        0.57836775555335       -1.30286079233405
H           -0.01640871595695        0.09645375116698        0.27116600449032
H            1.19797767089737       -1.03766828008572       -1.00362929987724
H            2.56920116924063        1.03196072659145        0.54476066760618
H            3.38330395994127        0.01273097970821       -0.65791531906638
H            3.85710193420366       -0.82278850225728        1.51605241800341
H            3.48455854091252       -2.52409712325361       -0.26177013741603
H            1.79485200140841       -2.67882776513118        0.25403016383623
H            4.22732031671751       -3.24258721224227        1.99470584051690
H            3.17184429125968       -4.45515462453612        1.26499611444496
H            2.56236975605355       -4.03817561678721        3.64305872492847
H            1.24750971172480       -3.58731064085181        2.55423359092926
H            3.27192735775221       -1.67535985331791        3.79740292579153
H            1.57572539356567       -1.83434053417028        4.25975532328288
H            1.90915636048105        0.10378217224511        2.74255372503743
H            0.86518069043531       -1.11075874077948        2.00822753475475

          :  Hamiltonian                  GFN2-xTB          :
         :: total energy             -30.639233832474 Eh    ::
         :: gradient norm              0.000414928598 Eh/a0 ::
         :: HOMO-LUMO gap              9.094641728536 eV    ::
         :: SCC energy               -30.998074449702 Eh    ::
         :: -> dispersion             -0.019049783907 Eh    ::
         :: repulsion energy           0.358646308225 Eh    ::

    * Orbital Energies and Occupations

         #    Occupation            Energy/Eh            Energy/eV
      -------------------------------------------------------------
         1        2.0000           -1.0158881             -27.6437
       ...           ...                  ...                  ...
        16        2.0000           -0.4923560             -13.3977
        17        2.0000           -0.4840956             -13.1729
        18        2.0000           -0.4674303             -12.7194
        19        2.0000           -0.4649776             -12.6527
        20        2.0000           -0.4598558             -12.5133
        21        2.0000           -0.4411257             -12.0036
        22        2.0000           -0.4371771             -11.8962
        23        2.0000           -0.4228594             -11.5066
        24        2.0000           -0.4189820             -11.4011
        25        2.0000           -0.4140515             -11.2669
        26        2.0000           -0.3967911             -10.7972
        27        2.0000           -0.3928564             -10.6902
        28        2.0000           -0.3921102             -10.6699 (HOMO)
        29                         -0.0578883              -1.5752 (LUMO)
        30                          0.0208098               0.5663
        31                          0.0524001               1.4259
        32                          0.0676022               1.8395
        33                          0.0688613               1.8738
        34                          0.0724445               1.9713
        35                          0.0744423               2.0257
        36                          0.0747784               2.0348
        37                          0.0814080               2.2152
        38                          0.1033521               2.8124
        39                          0.1070635               2.9133
       ...                                ...                  ...
        57                          0.3142222               8.5504
      -------------------------------------------------------------
                  HL-Gap            0.3342219 Eh            9.0946 eV

     #   Z          covCN         q      C6AA      α(0)
     1   7 N        2.701    -0.304    27.833     7.835
     2   6 C        3.732     0.005    20.587     6.476
     3   6 C        3.856    -0.025    20.981     6.515
     4   6 C        3.807    -0.060    21.645     6.623
     5   6 C        3.806    -0.055    21.558     6.610
     6   6 C        3.806    -0.058    21.613     6.618
     7   6 C        3.806    -0.055    21.565     6.611
     8   6 C        3.808    -0.073    21.881     6.659
     9  17 Cl       0.836    -0.489   115.293    16.426
    10   1 H        0.860     0.166     1.298     1.785
    11   1 H        0.908     0.331     0.623     1.235
    12   1 H        0.860     0.171     1.269     1.765
    13   1 H        0.924     0.049     2.330     2.387
    14   1 H        0.923     0.021     2.715     2.577
    15   1 H        0.924     0.037     2.483     2.464
    16   1 H        0.924     0.023     2.692     2.566
    17   1 H        0.924     0.036     2.500     2.473
    18   1 H        0.924     0.031     2.577     2.511
    19   1 H        0.924     0.028     2.617     2.530
    20   1 H        0.924     0.028     2.616     2.529
    21   1 H        0.924     0.036     2.501     2.473
    22   1 H        0.924     0.029     2.603     2.523
    23   1 H        0.924     0.033     2.544     2.494
    24   1 H        0.924     0.035     2.510     2.478
    25   1 H        0.925     0.060     2.197     2.318

Wiberg/Mayer (AO) data.
largest (>0.10) Wiberg bond orders for each atom

     #   Z sym  total        # sym  WBO       # sym  WBO       # sym  WBO
 ---------------------------------------------------------------------------
     1   7 N    3.243 --     2 C    1.003    10 H    0.959    12 H    0.952
                            11 H    0.214
     2   6 C    3.974 --     1 N    1.003     3 C    0.993    13 H    0.974
                            14 H    0.972
     3   6 C    3.993 --     8 C    0.998     4 C    0.997     2 C    0.993
                            15 H    0.964
     4   6 C    3.998 --     5 C    1.007     3 C    0.997    16 H    0.977
                            17 H    0.972
     5   6 C    3.998 --     6 C    1.009     4 C    1.007    19 H    0.978
                            18 H    0.977
     6   6 C    3.998 --     5 C    1.009     7 C    1.009    20 H    0.978
                            21 H    0.977
     7   6 C    3.998 --     6 C    1.009     8 C    1.008    22 H    0.977
                            23 H    0.977
     8   6 C    3.994 --     7 C    1.008     3 C    0.998    24 H    0.976
                            25 H    0.970
     9  17 Cl   0.765 --    11 H    0.670
    10   1 H    0.972 --     1 N    0.959
    11   1 H    0.890 --     9 Cl   0.670     1 N    0.214
    12   1 H    0.971 --     1 N    0.952
    13   1 H    0.997 --     2 C    0.974
    14   1 H    0.999 --     2 C    0.972
    15   1 H    0.999 --     3 C    0.964
    16   1 H    0.999 --     4 C    0.977
    17   1 H    0.999 --     4 C    0.972
    18   1 H    0.999 --     5 C    0.977
    19   1 H    0.999 --     5 C    0.978
    20   1 H    0.999 --     6 C    0.978
    21   1 H    0.999 --     6 C    0.977
    22   1 H    0.999 --     7 C    0.977
    23   1 H    0.999 --     7 C    0.977
    24   1 H    0.999 --     8 C    0.976
    25   1 H    0.996 --     8 C    0.970
 ---------------------------------------------------------------------------

molecular dipole:
                 x           y           z       tot (Debye)
 q only:        1.706      -0.395      -0.760
   full:        1.527      -0.313      -0.910       4.588

           -------------------------------------------------
          | TOTAL ENERGY              -30.639233832474 Eh   |
          | GRADIENT NORM               0.000414928598 Eh/α |
          | HOMO-LUMO GAP               9.094641728536 eV   |
           -------------------------------------------------

 * finished run on 2023/01/23 at 18:57:16.758
