   * xtb version 6.5.1 (fef0646) compiled by 'conda@b96dff2e9fd6' on 2023-01-04
          program call               : xtb init.xyz --opt -c 0 -u 0 -P 16 --alpb water

   ID    Z sym.   atoms
    1    7 N      1
    2    6 C      2-8
    3   17 Cl     9
    4    1 H      10-25

      * Solvation model:               ALPB
        Solvent                        water
        Solvent mass                       1.8000E+01 g/mol
          :  Hamiltonian                  GFN2-xTB          :
 * total energy  :   -30.6719792 Eh     change       -0.1892069E-09 Eh
 * total energy  :   -30.6762946 Eh     change       -0.4315421E-02 Eh
 * total energy  :   -30.6777914 Eh     change       -0.1496832E-02 Eh
 * total energy  :   -30.6782088 Eh     change       -0.4173793E-03 Eh
 * total energy  :   -30.6784239 Eh     change       -0.2151042E-03 Eh
 * total energy  :   -30.6785953 Eh     change       -0.1713464E-03 Eh
 * total energy  :   -30.6787459 Eh     change       -0.1506178E-03 Eh
 * total energy  :   -30.6788440 Eh     change       -0.9815472E-04 Eh
 * total energy  :   -30.6789655 Eh     change       -0.1214578E-03 Eh
 * total energy  :   -30.6792473 Eh     change       -0.2817660E-03 Eh
 * total energy  :   -30.6795247 Eh     change       -0.2774326E-03 Eh
 * total energy  :   -30.6801658 Eh     change       -0.6410966E-03 Eh
 * total energy  :   -30.6811366 Eh     change       -0.9707867E-03 Eh
 * total energy  :   -30.6814365 Eh     change       -0.2998820E-03 Eh
 * total energy  :   -30.6808669 Eh     change        0.5695937E-03 Eh
 * total energy  :   -30.6815885 Eh     change       -0.7215909E-03 Eh
 * total energy  :   -30.6816040 Eh     change       -0.1553467E-04 Eh
 * total energy  :   -30.6816132 Eh     change       -0.9242148E-05 Eh
 * total energy  :   -30.6816182 Eh     change       -0.4924288E-05 Eh
   *** GEOMETRY OPTIMIZATION CONVERGED AFTER 19 ITERATIONS ***

 final structure:
================
25
 xtb: 6.5.1 (fef0646)
N            1.25316931697129       -0.21619231807178       -0.23740341466903
C            2.69279751982902       -0.09629957222220        0.07552687194748
C            3.09696280815519        1.32282816903189        0.48119283056592
C            2.63099936748684        1.66111823287357        1.89872088802281
C            3.12417607914462        3.04881120855857        2.30064588292166
C            2.61996138977282        4.09844132050317        1.31504534914103
C            3.07952399250968        3.75962323420697       -0.09987177397057
C            2.57014259552004        2.37580587337979       -0.49603923680343
Cl          -1.01919583006426        1.07247125418674        1.36789749776743
H            0.97143414389934       -1.19658875420317       -0.30167879968167
H            1.03545236885262        0.25108092644407       -1.11960541207220
H            0.63076337027907        0.23095479137392        0.47721962535524
H            3.25999306693923       -0.39695697608635       -0.80670539494023
H            2.93056994234978       -0.77289346806357        0.89636463403939
H            4.19140024026136        1.36081312906612        0.47149521299847
H            3.01379282353134        0.92284381385840        2.60613315910276
H            1.54090202657274        1.64387595022289        1.95031893645020
H            4.21696673355076        3.06097513387755        2.31336778290883
H            2.77516631538556        3.28871750965484        3.30741839146711
H            2.98104790174422        5.08818676054448        1.60320454726203
H            1.52731625175888        4.11985486680843        1.34593124456158
H            4.17100583469733        3.77998249581221       -0.13871287482597
H            2.70434046716540        4.50974018742097       -0.79893198429226
H            2.89320061097693        2.14787558115456       -1.51328118768277
H            1.47955066271019        2.39920064966807       -0.45818277557368

          :  Hamiltonian                  GFN2-xTB          :
         :: total energy             -30.681618169728 Eh    ::
         :: gradient norm              0.000958674794 Eh/a0 ::
         :: HOMO-LUMO gap             10.061826886289 eV    ::
         :: SCC energy               -31.050028261981 Eh    ::
         :: -> dispersion             -0.018780970521 Eh    ::
         :: -> Gsolv                  -0.071995310015 Eh    ::
         :: repulsion energy           0.368198072516 Eh    ::

    * Orbital Energies and Occupations

         #    Occupation            Energy/Eh            Energy/eV
      -------------------------------------------------------------
         1        2.0000           -1.0059116             -27.3722
       ...           ...                  ...                  ...
        16        2.0000           -0.4855111             -13.2114
        17        2.0000           -0.4785765             -13.0227
        18        2.0000           -0.4579326             -12.4610
        19        2.0000           -0.4565798             -12.4242
        20        2.0000           -0.4483039             -12.1990
        21        2.0000           -0.4303009             -11.7091
        22        2.0000           -0.4267262             -11.6118
        23        2.0000           -0.4157103             -11.3121
        24        2.0000           -0.4092106             -11.1352
        25        2.0000           -0.4046090             -11.0100
        26        2.0000           -0.4021766             -10.9438
        27        2.0000           -0.4003641             -10.8945
        28        2.0000           -0.3975316             -10.8174 (HOMO)
        29                         -0.0277663              -0.7556 (LUMO)
        30                          0.0625696               1.7026
        31                          0.0768057               2.0900
        32                          0.0866857               2.3588
        33                          0.1015165               2.7624
        34                          0.1056726               2.8755
        35                          0.1149323               3.1275
        36                          0.1172510               3.1906
        37                          0.1184470               3.2231
        38                          0.1194855               3.2514
        39                          0.1199398               3.2637
       ...                                ...                  ...
        57                          0.3242612               8.8236
      -------------------------------------------------------------
                  HL-Gap            0.3697653 Eh           10.0618 eV

     #   Z          covCN         q      C6AA      α(0)
     1   7 N        3.483    -0.161    24.467     7.347
     2   6 C        3.734    -0.035    21.295     6.586
     3   6 C        3.856    -0.028    21.036     6.523
     4   6 C        3.808    -0.072    21.866     6.656
     5   6 C        3.806    -0.056    21.583     6.614
     6   6 C        3.806    -0.056    21.578     6.613
     7   6 C        3.806    -0.059    21.639     6.622
     8   6 C        3.808    -0.076    21.945     6.668
     9  17 Cl       0.026    -0.953   125.093    17.022
    10   1 H        0.859     0.304     0.701     1.312
    11   1 H        0.860     0.290     0.743     1.350
    12   1 H        0.883     0.292     0.736     1.343
    13   1 H        0.924     0.107     1.721     2.052
    14   1 H        0.925     0.102     1.769     2.080
    15   1 H        0.924     0.063     2.166     2.302
    16   1 H        0.924     0.034     2.523     2.484
    17   1 H        0.924     0.049     2.327     2.386
    18   1 H        0.924     0.033     2.538     2.491
    19   1 H        0.924     0.017     2.780     2.607
    20   1 H        0.924     0.019     2.748     2.592
    21   1 H        0.924     0.023     2.685     2.563
    22   1 H        0.924     0.037     2.491     2.468
    23   1 H        0.924     0.027     2.630     2.536
    24   1 H        0.924     0.049     2.338     2.391
    25   1 H        0.924     0.050     2.324     2.384

Wiberg/Mayer (AO) data.
largest (>0.10) Wiberg bond orders for each atom

     #   Z sym  total        # sym  WBO       # sym  WBO       # sym  WBO
 ---------------------------------------------------------------------------
     1   7 N    3.649 --     2 C    0.966    11 H    0.898    10 H    0.893
                            12 H    0.841
     2   6 C    3.928 --     3 C    0.997    14 H    0.967    13 H    0.967
                             1 N    0.966
     3   6 C    3.993 --     4 C    0.998     2 C    0.997     8 C    0.997
                            15 H    0.960
     4   6 C    3.996 --     5 C    1.008     3 C    0.998    16 H    0.976
                            17 H    0.970
     5   6 C    3.998 --     6 C    1.009     4 C    1.008    19 H    0.978
                            18 H    0.977
     6   6 C    3.998 --     7 C    1.009     5 C    1.009    20 H    0.978
                            21 H    0.978
     7   6 C    3.998 --     6 C    1.009     8 C    1.008    23 H    0.978
                            22 H    0.977
     8   6 C    3.996 --     7 C    1.008     3 C    0.997    24 H    0.975
                            25 H    0.973
     9  17 Cl   0.092
    10   1 H    0.907 --     1 N    0.893
    11   1 H    0.916 --     1 N    0.898
    12   1 H    0.915 --     1 N    0.841
    13   1 H    0.988 --     2 C    0.967
    14   1 H    0.989 --     2 C    0.967
    15   1 H    0.996 --     3 C    0.960
    16   1 H    0.999 --     4 C    0.976
    17   1 H    0.998 --     4 C    0.970
    18   1 H    0.999 --     5 C    0.977
    19   1 H    0.999 --     5 C    0.978
    20   1 H    0.999 --     6 C    0.978
    21   1 H    0.999 --     6 C    0.978
    22   1 H    0.999 --     7 C    0.977
    23   1 H    0.999 --     7 C    0.978
    24   1 H    0.998 --     8 C    0.975
    25   1 H    0.998 --     8 C    0.973
 ---------------------------------------------------------------------------

molecular dipole:
                 x           y           z       tot (Debye)
 q only:        4.327      -2.375      -2.952
   full:        3.554      -2.061      -2.585      12.338

           -------------------------------------------------
          | TOTAL ENERGY              -30.681618169728 Eh   |
          | GRADIENT NORM               0.000958674794 Eh/α |
          | HOMO-LUMO GAP              10.061826886289 eV   |
           -------------------------------------------------

 * finished run on 2023/01/24 at 15:20:49.674
