   * xtb version 6.5.1 (fef0646) compiled by 'conda@b96dff2e9fd6' on 2023-01-04
          program call               : xtb init.xyz --opt -c 0 -u 0 -P 16 --alpb water

   ID    Z sym.   atoms
    1    7 N      1
    2    6 C      2, 3, 5-14
    3    8 O      4
    4   17 Cl     15
    5    1 H      16-29

      * Solvation model:               ALPB
        Solvent                        water
        Solvent mass                       1.8000E+01 g/mol
          :  Hamiltonian                  GFN2-xTB          :
 * total energy  :   -44.3944469 Eh     change       -0.7710454E-09 Eh
 * total energy  :   -44.3992828 Eh     change       -0.4835923E-02 Eh
 * total energy  :   -44.4005007 Eh     change       -0.1217884E-02 Eh
 * total energy  :   -44.4008468 Eh     change       -0.3461647E-03 Eh
 * total energy  :   -44.4011950 Eh     change       -0.3481634E-03 Eh
 * total energy  :   -44.4014173 Eh     change       -0.2223071E-03 Eh
 * total energy  :   -44.4016153 Eh     change       -0.1980033E-03 Eh
 * total energy  :   -44.4017764 Eh     change       -0.1611193E-03 Eh
 * total energy  :   -44.4018844 Eh     change       -0.1079503E-03 Eh
 * total energy  :   -44.4019886 Eh     change       -0.1042294E-03 Eh
 * total energy  :   -44.4028214 Eh     change       -0.8206573E-04 Eh
 * total energy  :   -44.4028920 Eh     change       -0.7068169E-04 Eh
 * total energy  :   -44.4029725 Eh     change       -0.8043617E-04 Eh
 * total energy  :   -44.4030341 Eh     change       -0.6161422E-04 Eh
 * total energy  :   -44.4030750 Eh     change       -0.4086624E-04 Eh
 * total energy  :   -44.4030987 Eh     change       -0.2372109E-04 Eh
 * total energy  :   -44.4031087 Eh     change       -0.1004171E-04 Eh
 * total energy  :   -44.4031141 Eh     change       -0.5421741E-05 Eh
 * total energy  :   -44.4031186 Eh     change       -0.4433773E-05 Eh
   *** GEOMETRY OPTIMIZATION CONVERGED AFTER 24 ITERATIONS ***

 final structure:
================
29
 xtb: 6.5.1 (fef0646)
N            2.18436071037205        0.31297390814758        0.30819158518671
C            2.84350728726157       -0.42231993847158       -0.78488298666525
C            3.31856366232487       -1.78594772745134       -0.29682606075880
O            4.32394099493950       -1.55015220313193        0.68148022309536
C            4.96371767111457       -2.61573714865214        1.23903778836472
C            4.64075027238905       -3.92923124045379        1.00219691757931
C            5.34200989024138       -4.95907509420494        1.64800064326948
C            6.35336617501428       -4.68317660579863        2.52107802731032
C            6.72117003524647       -3.34557285666562        2.78135097551284
C            7.76853163413950       -3.01996739343447        3.66793315192062
C            8.11795092040318       -1.71810280920217        3.89628438096410
C            7.43726920448454       -0.68007822869138        3.24375218671492
C            6.41348992423396       -0.96115060175149        2.38154138897121
C            6.02717661750352       -2.29306010137121        2.13277600538825
Cl           1.37361212644757        3.08695245825760       -0.62251774358088
H            1.92116891010480        1.28593575894994       -0.00267566132054
H            2.82312954759300        0.39422583845763        1.10443685314077
H            1.32596585926670       -0.15447023808753        0.61084454900013
H            3.69835391483964        0.15967857926592       -1.12685274152355
H            2.14770850892877       -0.54280938251629       -1.61278912727901
H            3.73278570238676       -2.35617804846592       -1.13509739230761
H            2.48970175385118       -2.35085649566050        0.14596029350478
H            3.84886361693289       -4.19929468306857        0.32344746472722
H            5.06278840402419       -5.98162266891532        1.44299982708486
H            6.88735956893822       -5.47787141782250        3.01991072187269
H            8.29336504707048       -3.82416640891590        4.16323924333867
H            8.92273627985574       -1.48110289817963        4.57642683087835
H            7.72924982410137        0.34328856491466        3.42627213227147
H            5.89470593603311       -0.16651091704939        1.86994052326675

          :  Hamiltonian                  GFN2-xTB          :
         :: total energy             -44.403118571679 Eh    ::
         :: gradient norm              0.000832136115 Eh/a0 ::
         :: HOMO-LUMO gap              3.103543068569 eV    ::
         :: SCC energy               -45.044345349989 Eh    ::
         :: -> dispersion             -0.026014787835 Eh    ::
         :: -> Gsolv                  -0.073488326449 Eh    ::
         :: repulsion energy           0.641239022174 Eh    ::

    * Orbital Energies and Occupations

         #    Occupation            Energy/Eh            Energy/eV
      -------------------------------------------------------------
         1        2.0000           -1.0060925             -27.3772
       ...           ...                  ...                  ...
        28        2.0000           -0.4651201             -12.6566
        29        2.0000           -0.4590460             -12.4913
        30        2.0000           -0.4507528             -12.2656
        31        2.0000           -0.4434557             -12.0670
        32        2.0000           -0.4415892             -12.0163
        33        2.0000           -0.4156563             -11.3106
        34        2.0000           -0.4122096             -11.2168
        35        2.0000           -0.4087534             -11.1227
        36        2.0000           -0.4036152             -10.9829
        37        2.0000           -0.3999157             -10.8823
        38        2.0000           -0.3998306             -10.8799
        39        2.0000           -0.3977768             -10.8241
        40        2.0000           -0.3654556              -9.9446 (HOMO)
        41                         -0.2514025              -6.8410 (LUMO)
        42                         -0.2256718              -6.1408
        43                         -0.1825604              -4.9677
        44                         -0.1394456              -3.7945
        45                         -0.0523534              -1.4246
        46                         -0.0305006              -0.8300
        47                          0.0130116               0.3541
        48                          0.0744243               2.0252
        49                          0.0813398               2.2134
        50                          0.1056453               2.8748
        51                          0.1128709               3.0714
       ...                                ...                  ...
        79                          0.6995880              19.0368
      -------------------------------------------------------------
                  HL-Gap            0.1140531 Eh            3.1035 eV

     #   Z          covCN         q      C6AA      α(0)
     1   7 N        3.484    -0.160    24.442     7.343
     2   6 C        3.732    -0.031    21.224     6.576
     3   6 C        3.691     0.055    19.824     6.372
     4   8 O        1.704    -0.281    18.665     5.833
     5   6 C        2.859     0.131    25.124     8.216
     6   6 C        2.913    -0.081    30.017     8.984
     7   6 C        2.916    -0.038    28.956     8.824
     8   6 C        2.916    -0.054    29.340     8.882
     9   6 C        2.987     0.009    27.813     8.651
    10   6 C        2.920    -0.041    29.009     8.832
    11   6 C        2.915    -0.035    28.870     8.811
    12   6 C        2.917    -0.038    28.934     8.821
    13   6 C        2.918    -0.037    28.920     8.819
    14   6 C        2.987    -0.009    28.225     8.715
    15  17 Cl       0.065    -0.943   124.729    16.997
    16   1 H        0.921     0.301     0.707     1.315
    17   1 H        0.859     0.296     0.726     1.334
    18   1 H        0.859     0.301     0.711     1.321
    19   1 H        0.925     0.118     1.631     1.997
    20   1 H        0.925     0.118     1.631     1.997
    21   1 H        0.924     0.074     2.047     2.238
    22   1 H        0.924     0.074     2.037     2.232
    23   1 H        0.926     0.048     2.351     2.398
    24   1 H        0.926     0.038     2.479     2.462
    25   1 H        0.926     0.032     2.557     2.501
    26   1 H        0.926     0.033     2.539     2.492
    27   1 H        0.926     0.032     2.557     2.501
    28   1 H        0.926     0.034     2.524     2.484
    29   1 H        0.926     0.053     2.279     2.361

Wiberg/Mayer (AO) data.
largest (>0.10) Wiberg bond orders for each atom

     #   Z sym  total        # sym  WBO       # sym  WBO       # sym  WBO
 ---------------------------------------------------------------------------
     1   7 N    3.648 --     2 C    0.978    17 H    0.896    18 H    0.894
                            16 H    0.823
     2   6 C    3.933 --     3 C    1.007     1 N    0.978    20 H    0.963
                            19 H    0.963
     3   6 C    3.937 --     2 C    1.007    21 H    0.962    22 H    0.961
                             4 O    0.959
     4   8 O    2.225 --     5 C    1.063     3 C    0.959
     5   6 C    3.939 --     6 C    1.479    14 C    1.208     4 O    1.063
                             8 C    0.100
     6   6 C    3.985 --     5 C    1.479     7 C    1.321    23 H    0.965
     7   6 C    3.992 --     8 C    1.559     6 C    1.321    24 H    0.971
     8   6 C    3.991 --     7 C    1.559     9 C    1.268    25 H    0.969
                             5 C    0.100
     9   6 C    3.990 --    10 C    1.283     8 C    1.268    14 C    1.262
    10   6 C    3.991 --    11 C    1.552     9 C    1.283    26 H    0.968
                            13 C    0.118
    11   6 C    3.992 --    10 C    1.552    12 C    1.328    27 H    0.971
    12   6 C    3.992 --    13 C    1.546    11 C    1.328    28 H    0.971
    13   6 C    3.991 --    12 C    1.546    14 C    1.296    29 H    0.966
                            10 C    0.118
    14   6 C    3.988 --    13 C    1.296     9 C    1.262     5 C    1.208
    15  17 Cl   0.110
    16   1 H    0.910 --     1 N    0.823
    17   1 H    0.912 --     1 N    0.896
    18   1 H    0.910 --     1 N    0.894
    19   1 H    0.986 --     2 C    0.963
    20   1 H    0.986 --     2 C    0.963
    21   1 H    0.994 --     3 C    0.962
    22   1 H    0.994 --     3 C    0.961
    23   1 H    0.997 --     6 C    0.965
    24   1 H    0.998 --     7 C    0.971
    25   1 H    0.998 --     8 C    0.969
    26   1 H    0.998 --    10 C    0.968
    27   1 H    0.998 --    11 C    0.971
    28   1 H    0.998 --    12 C    0.971
    29   1 H    0.997 --    13 C    0.966
 ---------------------------------------------------------------------------

molecular dipole:
                 x           y           z       tot (Debye)
 q only:        1.048      -5.047       1.006
   full:        0.861      -4.519       0.917      11.923

           -------------------------------------------------
          | TOTAL ENERGY              -44.403118571679 Eh   |
          | GRADIENT NORM               0.000832136115 Eh/α |
          | HOMO-LUMO GAP               3.103543068569 eV   |
           -------------------------------------------------

 * finished run on 2023/01/24 at 14:58:12.752
