   * xtb version 6.5.1 (fef0646) compiled by 'conda@b96dff2e9fd6' on 2023-01-04
          program call               : xtb init.xyz --opt -c 0 -u 0 -P 16 --input xtb.inp

   ID    Z sym.   atoms
    1    7 N      1
    2    6 C      2-9
    3   17 Cl     10
    4    1 H      11-30

          :  Hamiltonian                  GFN2-xTB          :
 * total energy  :   -34.7909970 Eh     change       -0.4915961E-09 Eh
 * total energy  :   -34.7973633 Eh     change       -0.6366286E-02 Eh
 * total energy  :   -34.8011019 Eh     change       -0.3738665E-02 Eh
 * total energy  :   -34.8038221 Eh     change       -0.2720122E-02 Eh
 * total energy  :   -34.8065123 Eh     change       -0.2690271E-02 Eh
 * total energy  :   -34.8080323 Eh     change       -0.1519977E-02 Eh
 * total energy  :   -34.8082810 Eh     change       -0.2487346E-03 Eh
 * total energy  :   -34.8085585 Eh     change       -0.2775067E-03 Eh
 * total energy  :   -34.8086348 Eh     change       -0.7626288E-04 Eh
 * total energy  :   -34.8087107 Eh     change       -0.7587309E-04 Eh
 * total energy  :   -34.8089522 Eh     change       -0.3463839E-04 Eh
 * total energy  :   -34.8089811 Eh     change       -0.2892379E-04 Eh
 * total energy  :   -34.8090058 Eh     change       -0.2466184E-04 Eh
 * total energy  :   -34.8090258 Eh     change       -0.2001994E-04 Eh
 * total energy  :   -34.8090398 Eh     change       -0.1403639E-04 Eh
 * total energy  :   -34.8090473 Eh     change       -0.7448375E-05 Eh
 * total energy  :   -34.8090523 Eh     change       -0.5064203E-05 Eh
 * total energy  :   -34.8090577 Eh     change       -0.5347412E-05 Eh
 * total energy  :   -34.8090607 Eh     change       -0.3068720E-05 Eh
   *** GEOMETRY OPTIMIZATION CONVERGED AFTER 22 ITERATIONS ***

 final structure:
================
30
 xtb: 6.5.1 (fef0646)
N            0.79201597291430        1.83285070391406       -1.40032629393081
C            2.22903031476074        2.09691005153239       -1.48877073036735
C            2.91904474714309        1.62861331351288       -0.21038330950324
C            4.44361680778303        1.63911276166271       -0.31433779702964
C            5.03718462607689        3.03799182547277       -0.47118698090246
C            6.56383134453641        3.01031084783198       -0.44409467926050
C            7.16649753604167        4.39746631350118       -0.65217274836637
C            8.69272132808199        4.37279263540721       -0.62329507883158
C            9.28673194196780        5.75588925905222       -0.85969888038590
Cl           0.29516496372221       -1.03664532298900       -1.09489109064236
H            0.30790334245245        2.14768206003769       -2.23387371201144
H            0.39132741611668        2.29995631881180       -0.59330414609934
H            0.53974790812258        0.30939499835291       -1.24453594968386
H            2.43385857412958        3.16162854423786       -1.66145131245365
H            2.61318411063755        1.53039773401123       -2.34023497143802
H            2.58441935737737        0.61151118706018       -0.00295244584582
H            2.60669720387578        2.26259518633478        0.62297166470186
H            4.74941050083806        1.01954612084401       -1.15970612021172
H            4.85292326988096        1.18519676941345        0.59062087410575
H            4.67451540162583        3.67823972072629        0.33664970300208
H            4.71054480348699        3.47543140987693       -1.41642695452351
H            6.92459098813682        2.33966197601037       -1.22747377682878
H            6.90193358313148        2.60891536462322        0.51402150456857
H            6.80246208534586        5.07091384003426        0.12759061416518
H            6.83223483215685        4.79516937369307       -1.61363702104027
H            9.05602354784775        3.68604085432082       -1.39124773148982
H            9.02879507974037        3.99343667670950        0.34436422567749
H            8.98384412333650        6.13980918836996       -1.83158557299295
H           10.37309212684397        5.71711918153205       -0.82975974770480
H            8.94691216189254        6.45274110610209       -0.09647153467808

          :  Hamiltonian                  GFN2-xTB          :
         :: total energy             -34.809060736197 Eh    ::
         :: gradient norm              0.000263964657 Eh/a0 ::
         :: HOMO-LUMO gap              9.162036352992 eV    ::
         :: SCC energy               -35.237378671506 Eh    ::
         :: -> dispersion             -0.018974018403 Eh    ::
         :: repulsion energy           0.428435524615 Eh    ::

    * Orbital Energies and Occupations

         #    Occupation            Energy/Eh            Energy/eV
      -------------------------------------------------------------
         1        2.0000           -1.0153123             -27.6281
       ...           ...                  ...                  ...
        20        2.0000           -0.4747049             -12.9174
        21        2.0000           -0.4654854             -12.6665
        22        2.0000           -0.4610546             -12.5459
        23        2.0000           -0.4529675             -12.3259
        24        2.0000           -0.4418550             -12.0235
        25        2.0000           -0.4411195             -12.0035
        26        2.0000           -0.4335031             -11.7962
        27        2.0000           -0.4287631             -11.6672
        28        2.0000           -0.4242249             -11.5437
        29        2.0000           -0.4231277             -11.5139
        30        2.0000           -0.3971431             -10.8068
        31        2.0000           -0.3924124             -10.6781
        32        2.0000           -0.3923356             -10.6760 (HOMO)
        33                         -0.0556370              -1.5140 (LUMO)
        34                          0.0120872               0.3289
        35                          0.0467622               1.2725
        36                          0.0691478               1.8816
        37                          0.0694421               1.8896
        38                          0.0750365               2.0418
        39                          0.0751802               2.0458
        40                          0.0845857               2.3017
        41                          0.0961147               2.6154
        42                          0.1054674               2.8699
        43                          0.1091861               2.9711
       ...                                ...                  ...
        65                          0.3154579               8.5840
      -------------------------------------------------------------
                  HL-Gap            0.3366986 Eh            9.1620 eV

     #   Z          covCN         q      C6AA      α(0)
     1   7 N        2.703    -0.305    27.855     7.839
     2   6 C        3.731     0.007    20.555     6.472
     3   6 C        3.803    -0.074    21.904     6.663
     4   6 C        3.803    -0.062    21.691     6.631
     5   6 C        3.802    -0.060    21.660     6.626
     6   6 C        3.803    -0.060    21.649     6.624
     7   6 C        3.803    -0.059    21.636     6.622
     8   6 C        3.801    -0.053    21.532     6.607
     9   6 C        3.752    -0.102    22.517     6.767
    10  17 Cl       0.837    -0.490   115.303    16.427
    11   1 H        0.860     0.166     1.299     1.785
    12   1 H        0.860     0.167     1.289     1.779
    13   1 H        0.908     0.331     0.624     1.236
    14   1 H        0.924     0.026     2.642     2.542
    15   1 H        0.924     0.053     2.281     2.362
    16   1 H        0.924     0.063     2.169     2.303
    17   1 H        0.924     0.037     2.494     2.470
    18   1 H        0.924     0.037     2.489     2.467
    19   1 H        0.924     0.040     2.453     2.449
    20   1 H        0.924     0.031     2.575     2.509
    21   1 H        0.924     0.029     2.604     2.524
    22   1 H        0.924     0.031     2.578     2.511
    23   1 H        0.924     0.031     2.578     2.511
    24   1 H        0.924     0.030     2.588     2.516
    25   1 H        0.924     0.030     2.593     2.518
    26   1 H        0.924     0.029     2.594     2.519
    27   1 H        0.924     0.029     2.595     2.519
    28   1 H        0.925     0.033     2.540     2.492
    29   1 H        0.925     0.034     2.535     2.490
    30   1 H        0.925     0.033     2.538     2.491

Wiberg/Mayer (AO) data.
largest (>0.10) Wiberg bond orders for each atom

     #   Z sym  total        # sym  WBO       # sym  WBO       # sym  WBO
 ---------------------------------------------------------------------------
     1   7 N    3.244 --     2 C    1.002    11 H    0.959    12 H    0.958
                            13 H    0.212
     2   6 C    3.972 --     3 C    1.007     1 N    1.002    15 H    0.974
                            14 H    0.972
     3   6 C    3.993 --     2 C    1.007     4 C    1.006    17 H    0.976
                            16 H    0.972
     4   6 C    3.996 --     5 C    1.008     3 C    1.006    18 H    0.977
                            19 H    0.976
     5   6 C    3.997 --     4 C    1.008     6 C    1.007    20 H    0.977
                            21 H    0.976
     6   6 C    3.997 --     7 C    1.007     5 C    1.007    23 H    0.977
                            22 H    0.977
     7   6 C    3.997 --     8 C    1.008     6 C    1.007    24 H    0.978
                            25 H    0.977
     8   6 C    3.997 --     9 C    1.019     7 C    1.008    27 H    0.979
                            26 H    0.979
     9   6 C    3.997 --     8 C    1.019    28 H    0.988    30 H    0.988
                            29 H    0.987
    10  17 Cl   0.763 --    13 H    0.673
    11   1 H    0.972 --     1 N    0.959
    12   1 H    0.972 --     1 N    0.958
    13   1 H    0.890 --    10 Cl   0.673     1 N    0.212
    14   1 H    0.999 --     2 C    0.972
    15   1 H    0.997 --     2 C    0.974
    16   1 H    0.996 --     3 C    0.972
    17   1 H    0.999 --     3 C    0.976
    18   1 H    0.999 --     4 C    0.977
    19   1 H    0.998 --     4 C    0.976
    20   1 H    0.999 --     5 C    0.977
    21   1 H    0.999 --     5 C    0.976
    22   1 H    0.999 --     6 C    0.977
    23   1 H    0.999 --     6 C    0.977
    24   1 H    0.999 --     7 C    0.978
    25   1 H    0.999 --     7 C    0.977
    26   1 H    0.999 --     8 C    0.979
    27   1 H    0.999 --     8 C    0.979
    28   1 H    0.999 --     9 C    0.988
    29   1 H    0.999 --     9 C    0.987
    30   1 H    0.999 --     9 C    0.988
 ---------------------------------------------------------------------------

molecular dipole:
                 x           y           z       tot (Debye)
 q only:        0.594       1.898      -0.117
   full:        0.413       1.837      -0.140       4.799

           -------------------------------------------------
          | TOTAL ENERGY              -34.809060736197 Eh   |
          | GRADIENT NORM               0.000263964657 Eh/α |
          | HOMO-LUMO GAP               9.162036352992 eV   |
           -------------------------------------------------

 * finished run on 2023/01/23 at 20:14:17.035
