   * xtb version 6.5.1 (fef0646) compiled by 'conda@b96dff2e9fd6' on 2023-01-04
          program call               : xtb init.xyz --opt -c 0 -u 0 -P 16

   ID    Z sym.   atoms
    1    7 N      1
    2    6 C      2-5
    3   17 Cl     6
    4    1 H      7-16

          :  Hamiltonian                  GFN2-xTB          :
 * total energy  :   -21.0870099 Eh     change       -0.1356049E-08 Eh
 * total energy  :   -21.0955495 Eh     change       -0.8539641E-02 Eh
 * total energy  :   -21.1004371 Eh     change       -0.4887560E-02 Eh
 * total energy  :   -21.1058613 Eh     change       -0.5424250E-02 Eh
 * total energy  :   -21.1099863 Eh     change       -0.4124992E-02 Eh
 * total energy  :   -21.1119883 Eh     change       -0.2001971E-02 Eh
 * total energy  :   -21.1134920 Eh     change       -0.1503708E-02 Eh
 * total energy  :   -21.1150310 Eh     change       -0.1539012E-02 Eh
 * total energy  :   -21.1160467 Eh     change       -0.1015690E-02 Eh
 * total energy  :   -21.1164070 Eh     change       -0.3603123E-03 Eh
 * total energy  :   -21.1169875 Eh     change       -0.9318242E-04 Eh
 * total energy  :   -21.1170380 Eh     change       -0.5047589E-04 Eh
 * total energy  :   -21.1170638 Eh     change       -0.2581101E-04 Eh
 * total energy  :   -21.1170951 Eh     change       -0.3135477E-04 Eh
 * total energy  :   -21.1171270 Eh     change       -0.3187202E-04 Eh
 * total energy  :   -21.1171522 Eh     change       -0.2521884E-04 Eh
 * total energy  :   -21.1171638 Eh     change       -0.1156492E-04 Eh
 * total energy  :   -21.1171711 Eh     change       -0.7274687E-05 Eh
 * total energy  :   -21.1171734 Eh     change       -0.2333039E-05 Eh
   *** GEOMETRY OPTIMIZATION CONVERGED AFTER 23 ITERATIONS ***

 final structure:
================
16
 xtb: 6.5.1 (fef0646)
N            1.28112472945733       -0.44231035522674        0.20515077365857
C            2.70996782626772       -0.21002371696418        0.09554212613086
C            3.67512753109577       -1.16769640335974        0.82940971836216
C            4.37428638858148        0.04835381988209        1.45717643016205
C            3.24215812769460        0.95407484538793        0.94616252760036
Cl          -0.19142659155768        1.96061196198317       -0.63318758048168
H            0.98825138468235       -1.23723241376338       -0.35214355526407
H            0.50318092493372        0.84623054437186       -0.26208863418162
H            1.01839466076719       -0.60393893486939        1.17228818154929
H            2.94813137021457       -0.10217370472794       -0.96384403934439
H            4.29109050742739       -1.80451002815509        0.19858162601270
H            3.16409767448376       -1.78901812788303        1.56393314619137
H            5.33373844727002        0.26768443459224        0.99530256035455
H            4.50312046585329        0.01409463786741        2.53640099573002
H            3.54185250719846        1.84149787278318        0.39681827591533
H            2.53914404563009        1.24475556808112        1.72313744760423

          :  Hamiltonian                  GFN2-xTB          :
         :: total energy             -21.117173386138 Eh    ::
         :: gradient norm              0.000512844273 Eh/a0 ::
         :: HOMO-LUMO gap              9.221896806649 eV    ::
         :: SCC energy               -21.338481687175 Eh    ::
         :: -> dispersion             -0.009281725708 Eh    ::
         :: repulsion energy           0.221289816712 Eh    ::

    * Orbital Energies and Occupations

         #    Occupation            Energy/Eh            Energy/eV
      -------------------------------------------------------------
         1        2.0000           -1.0169682             -27.6731
       ...           ...                  ...                  ...
         7        2.0000           -0.5554408             -15.1143
         8        2.0000           -0.5407382             -14.7142
         9        2.0000           -0.5309080             -14.4467
        10        2.0000           -0.5140232             -13.9873
        11        2.0000           -0.4911527             -13.3649
        12        2.0000           -0.4833263             -13.1520
        13        2.0000           -0.4804859             -13.0747
        14        2.0000           -0.4495463             -12.2328
        15        2.0000           -0.4393163             -11.9544
        16        2.0000           -0.4323400             -11.7646
        17        2.0000           -0.3966091             -10.7923
        18        2.0000           -0.3941317             -10.7249
        19        2.0000           -0.3940766             -10.7234 (HOMO)
        20                         -0.0551781              -1.5015 (LUMO)
        21                          0.0178168               0.4848
        22                          0.0208009               0.5660
        23                          0.0312796               0.8512
        24                          0.0588764               1.6021
        25                          0.0667741               1.8170
        26                          0.0668692               1.8196
        27                          0.0727206               1.9788
        28                          0.0727583               1.9799
        29                          0.0765900               2.0841
        30                          0.1323567               3.6016
       ...                                ...                  ...
        39                          0.3737191              10.1694
      -------------------------------------------------------------
                  HL-Gap            0.3388985 Eh            9.2219 eV

     #   Z          covCN         q      C6AA      α(0)
     1   7 N        2.680    -0.309    27.958     7.853
     2   6 C        3.965     0.042    19.802     6.323
     3   6 C        3.979    -0.073    21.812     6.635
     4   6 C        3.984    -0.060    21.582     6.600
     5   6 C        3.981    -0.074    21.834     6.639
     6  17 Cl       0.838    -0.477   114.852    16.395
     7   1 H        0.860     0.165     1.301     1.787
     8   1 H        0.888     0.331     0.626     1.238
     9   1 H        0.860     0.170     1.271     1.766
    10   1 H        0.924     0.046     2.373     2.409
    11   1 H        0.925     0.032     2.552     2.498
    12   1 H        0.925     0.034     2.531     2.488
    13   1 H        0.925     0.040     2.455     2.450
    14   1 H        0.925     0.036     2.502     2.474
    15   1 H        0.925     0.046     2.365     2.405
    16   1 H        0.925     0.051     2.311     2.377

Wiberg/Mayer (AO) data.
largest (>0.10) Wiberg bond orders for each atom

     #   Z sym  total        # sym  WBO       # sym  WBO       # sym  WBO
 ---------------------------------------------------------------------------
     1   7 N    3.243 --     2 C    1.007     7 H    0.957     9 H    0.954
                             8 H    0.194
     2   6 C    3.969 --     1 N    1.007     5 C    0.993     3 C    0.983
                            10 H    0.970
     3   6 C    3.992 --     4 C    1.005     2 C    0.983    11 H    0.983
                            12 H    0.980
     4   6 C    3.992 --     3 C    1.005     5 C    1.005    13 H    0.983
                            14 H    0.983
     5   6 C    3.990 --     4 C    1.005     2 C    0.993    15 H    0.981
                            16 H    0.978
     6  17 Cl   0.774 --     8 H    0.692
     7   1 H    0.973 --     1 N    0.957
     8   1 H    0.890 --     6 Cl   0.692     1 N    0.194
     9   1 H    0.971 --     1 N    0.954
    10   1 H    0.998 --     2 C    0.970
    11   1 H    0.999 --     3 C    0.983
    12   1 H    0.999 --     3 C    0.980
    13   1 H    0.998 --     4 C    0.983
    14   1 H    0.999 --     4 C    0.983
    15   1 H    0.998 --     5 C    0.981
    16   1 H    0.997 --     5 C    0.978
 ---------------------------------------------------------------------------

molecular dipole:
                 x           y           z       tot (Debye)
 q only:        1.114      -1.488       0.626
   full:        0.970      -1.483       0.606       4.761

           -------------------------------------------------
          | TOTAL ENERGY              -21.117173386138 Eh   |
          | GRADIENT NORM               0.000512844273 Eh/α |
          | HOMO-LUMO GAP               9.221896806649 eV   |
           -------------------------------------------------

 * finished run on 2023/01/23 at 13:41:55.350
