   * xtb version 6.5.1 (fef0646) compiled by 'conda@b96dff2e9fd6' on 2023-01-04
          program call               : xtb init.xyz --opt -c 0 -u 0 -P 16 --alpb water

   ID    Z sym.   atoms
    1    7 N      1
    2    6 C      2-13
    3   17 Cl     14
    4    1 H      15-28

      * Solvation model:               ALPB
        Solvent                        water
        Solvent mass                       1.8000E+01 g/mol
          :  Hamiltonian                  GFN2-xTB          :
 * total energy  :   -40.3244570 Eh     change       -0.1063320E-08 Eh
 * total energy  :   -40.3360387 Eh     change       -0.1158176E-01 Eh
 * total energy  :   -40.3389049 Eh     change       -0.2866133E-02 Eh
 * total energy  :   -40.3400411 Eh     change       -0.1136263E-02 Eh
 * total energy  :   -40.3407811 Eh     change       -0.7399656E-03 Eh
 * total energy  :   -40.3413321 Eh     change       -0.5509950E-03 Eh
 * total energy  :   -40.3420025 Eh     change       -0.6704075E-03 Eh
 * total energy  :   -40.3426106 Eh     change       -0.6081645E-03 Eh
 * total energy  :   -40.3429954 Eh     change       -0.3847195E-03 Eh
 * total energy  :   -40.3430942 Eh     change       -0.9878192E-04 Eh
 * total energy  :   -40.3434943 Eh     change       -0.5001417E-04 Eh
 * total energy  :   -40.3435230 Eh     change       -0.2862898E-04 Eh
 * total energy  :   -40.3435410 Eh     change       -0.1804654E-04 Eh
 * total energy  :   -40.3435767 Eh     change       -0.3566627E-04 Eh
 * total energy  :   -40.3435917 Eh     change       -0.1497168E-04 Eh
 * total energy  :   -40.3436085 Eh     change       -0.1681202E-04 Eh
 * total energy  :   -40.3436149 Eh     change       -0.6427564E-05 Eh
 * total energy  :   -40.3436199 Eh     change       -0.5050281E-05 Eh
 * total energy  :   -40.3436233 Eh     change       -0.3349338E-05 Eh
   *** GEOMETRY OPTIMIZATION CONVERGED AFTER 26 ITERATIONS ***

 final structure:
================
28
 xtb: 6.5.1 (fef0646)
N            0.96450260024755        0.02721862084386        0.28376542218969
C            2.36860599431343        0.25685880944748       -0.14683529560670
C            3.29106274655063       -0.10663107334072        1.01065401644401
C            2.69512586109652       -0.55737136775322       -1.37466700583466
C            2.41296060364490       -1.93850886084512       -1.40291077099271
C            2.73796025712027       -2.68830142393997       -2.49716467925484
C            3.30233118375029        0.03107490308707       -2.45350100889254
C            3.65333179855256       -0.71772828222363       -3.59509153661289
C            3.36445030995570       -2.10673780625367       -3.61998130828095
C            3.71354757985298       -2.85679176026143       -4.76201947795508
C            4.32101615868623       -2.25858795683565       -5.83071780852244
C            4.60627600473898       -0.88384801862258       -5.80643851275024
C            4.27986494520508       -0.12987054116275       -4.71415100101329
Cl           0.46305928390793       -2.68483281034908        1.64616803990943
H            0.70704849082031        0.67629910343583        1.03124368671837
H            0.84688676665249       -0.93649245854246        0.68865218562654
H            0.30956605062363        0.12087261948059       -0.49586318422190
H            2.48277267571343        1.31718812642004       -0.39116845786030
H            3.08931815966102       -1.12502735648075        1.33348942404704
H            3.13609370078806        0.56057616320929        1.85288275377864
H            4.32944357504245       -0.04185122762593        0.70220269681288
H            1.93854676110490       -2.40697749616496       -0.55412951805773
H            2.51945649683472       -3.74677418087978       -2.51565708471316
H            3.53046926674424        1.08695018312728       -2.44613806224754
H            3.49148485659121       -3.91451835717823       -4.77537980839774
H            4.58644226251921       -2.83937899352227       -6.70182128888846
H            5.08649863400717       -0.42983766809185       -6.66052792997225
H            4.49823697527421        0.92765911102423       -4.69271448545143

          :  Hamiltonian                  GFN2-xTB          :
         :: total energy             -40.343623293887 Eh    ::
         :: gradient norm              0.000447176441 Eh/a0 ::
         :: HOMO-LUMO gap              3.234987531074 eV    ::
         :: SCC energy               -40.985689039458 Eh    ::
         :: -> dispersion             -0.027006922321 Eh    ::
         :: -> Gsolv                  -0.070272767699 Eh    ::
         :: repulsion energy           0.642028583557 Eh    ::

    * Orbital Energies and Occupations

         #    Occupation            Energy/Eh            Energy/eV
      -------------------------------------------------------------
         1        2.0000           -1.0071740             -27.4066
       ...           ...                  ...                  ...
        25        2.0000           -0.4629948             -12.5987
        26        2.0000           -0.4551135             -12.3843
        27        2.0000           -0.4480888             -12.1931
        28        2.0000           -0.4442380             -12.0883
        29        2.0000           -0.4326346             -11.7726
        30        2.0000           -0.4223911             -11.4938
        31        2.0000           -0.4148606             -11.2889
        32        2.0000           -0.4102076             -11.1623
        33        2.0000           -0.4032957             -10.9742
        34        2.0000           -0.4006155             -10.9013
        35        2.0000           -0.3985468             -10.8450
        36        2.0000           -0.3952957             -10.7565
        37        2.0000           -0.3755227             -10.2185 (HOMO)
        38                         -0.2566391              -6.9835 (LUMO)
        39                         -0.2263761              -6.1600
        40                         -0.1858432              -5.0570
        41                         -0.1448993              -3.9429
        42                         -0.0560530              -1.5253
        43                         -0.0219873              -0.5983
        44                          0.0745466               2.0285
        45                          0.0804104               2.1881
        46                          0.0970289               2.6403
        47                          0.1103465               3.0027
        48                          0.1142400               3.1086
       ...                                ...                  ...
        75                          0.6993830              19.0312
      -------------------------------------------------------------
                  HL-Gap            0.1188836 Eh            3.2350 eV

     #   Z          covCN         q      C6AA      α(0)
     1   7 N        3.486    -0.178    24.839     7.402
     2   6 C        3.787     0.033    20.033     6.375
     3   6 C        3.757    -0.136    23.179     6.864
     4   6 C        2.970     0.006    27.873     8.660
     5   6 C        2.918    -0.039    28.971     8.826
     6   6 C        2.917    -0.036    28.904     8.816
     7   6 C        2.923    -0.050    29.240     8.868
     8   6 C        2.986     0.012    27.746     8.641
     9   6 C        2.987     0.010    27.797     8.648
    10   6 C        2.918    -0.039    28.970     8.826
    11   6 C        2.916    -0.035    28.877     8.812
    12   6 C        2.916    -0.036    28.888     8.814
    13   6 C        2.918    -0.041    29.024     8.834
    14  17 Cl       0.036    -0.947   124.863    17.006
    15   1 H        0.859     0.302     0.708     1.319
    16   1 H        0.893     0.297     0.718     1.326
    17   1 H        0.859     0.297     0.723     1.332
    18   1 H        0.924     0.101     1.776     2.084
    19   1 H        0.925     0.064     2.151     2.294
    20   1 H        0.925     0.072     2.065     2.247
    21   1 H        0.925     0.069     2.094     2.263
    22   1 H        0.926     0.056     2.242     2.342
    23   1 H        0.926     0.024     2.670     2.555
    24   1 H        0.926     0.056     2.250     2.346
    25   1 H        0.926     0.028     2.610     2.527
    26   1 H        0.926     0.031     2.573     2.509
    27   1 H        0.926     0.035     2.515     2.480
    28   1 H        0.926     0.044     2.391     2.418

Wiberg/Mayer (AO) data.
largest (>0.10) Wiberg bond orders for each atom

     #   Z sym  total        # sym  WBO       # sym  WBO       # sym  WBO
 ---------------------------------------------------------------------------
     1   7 N    3.639 --     2 C    0.946    17 H    0.897    15 H    0.893
                            16 H    0.831
     2   6 C    3.937 --     3 C    1.000     4 C    0.996    18 H    0.957
                             1 N    0.946
     3   6 C    3.983 --     2 C    1.000    19 H    0.980    20 H    0.980
                            21 H    0.980
     4   6 C    3.987 --     7 C    1.530     5 C    1.293     2 C    0.996
     5   6 C    3.990 --     6 C    1.564     4 C    1.293    22 H    0.961
     6   6 C    3.992 --     5 C    1.564     9 C    1.276    23 H    0.969
                             7 C    0.115
     7   6 C    3.989 --     4 C    1.530     8 C    1.280    24 H    0.963
                             6 C    0.115
     8   6 C    3.990 --     7 C    1.280    13 C    1.279     9 C    1.252
     9   6 C    3.990 --    10 C    1.281     6 C    1.276     8 C    1.252
    10   6 C    3.992 --    11 C    1.556     9 C    1.281    25 H    0.969
                            13 C    0.118
    11   6 C    3.990 --    10 C    1.556    12 C    1.321    26 H    0.971
    12   6 C    3.992 --    13 C    1.557    11 C    1.321    27 H    0.971
    13   6 C    3.989 --    12 C    1.557     8 C    1.279    28 H    0.967
                            10 C    0.118
    14  17 Cl   0.103
    15   1 H    0.908 --     1 N    0.893
    16   1 H    0.912 --     1 N    0.831
    17   1 H    0.912 --     1 N    0.897
    18   1 H    0.989 --     2 C    0.957
    19   1 H    0.996 --     3 C    0.980
    20   1 H    0.994 --     3 C    0.980
    21   1 H    0.995 --     3 C    0.980
    22   1 H    0.996 --     5 C    0.961
    23   1 H    0.999 --     6 C    0.969
    24   1 H    0.996 --     7 C    0.963
    25   1 H    0.999 --    10 C    0.969
    26   1 H    0.999 --    11 C    0.971
    27   1 H    0.998 --    12 C    0.971
    28   1 H    0.998 --    13 C    0.967
 ---------------------------------------------------------------------------

molecular dipole:
                 x           y           z       tot (Debye)
 q only:        1.194       5.008      -2.256
   full:        0.877       4.235      -1.927      12.033

           -------------------------------------------------
          | TOTAL ENERGY              -40.343623293887 Eh   |
          | GRADIENT NORM               0.000447176441 Eh/α |
          | HOMO-LUMO GAP               3.234987531074 eV   |
           -------------------------------------------------

 * finished run on 2023/01/24 at 14:58:14.776
