   * xtb version 6.5.1 (fef0646) compiled by 'conda@b96dff2e9fd6' on 2023-01-04
          program call               : xtb init.xyz --opt -c 0 -u 0 -P 16

   ID    Z sym.   atoms
    1    7 N      1
    2    6 C      2-8
    3   17 Cl     9
    4    1 H      10-25

          :  Hamiltonian                  GFN2-xTB          :
 * total energy  :   -30.6159548 Eh     change       -0.9710845E-09 Eh
 * total energy  :   -30.6214406 Eh     change       -0.5485892E-02 Eh
 * total energy  :   -30.6279006 Eh     change       -0.6459929E-02 Eh
 * total energy  :   -30.6324811 Eh     change       -0.4580512E-02 Eh
 * total energy  :   -30.6349236 Eh     change       -0.2442472E-02 Eh
 * total energy  :   -30.6367085 Eh     change       -0.1784961E-02 Eh
 * total energy  :   -30.6376300 Eh     change       -0.9214906E-03 Eh
 * total energy  :   -30.6381594 Eh     change       -0.5293690E-03 Eh
 * total energy  :   -30.6384088 Eh     change       -0.2493737E-03 Eh
 * total energy  :   -30.6384800 Eh     change       -0.7128716E-04 Eh
 * total energy  :   -30.6391806 Eh     change       -0.1096958E-04 Eh
 * total energy  :   -30.6391890 Eh     change       -0.8438967E-05 Eh
 * total energy  :   -30.6391993 Eh     change       -0.1026231E-04 Eh
 * total energy  :   -30.6392089 Eh     change       -0.9590915E-05 Eh
 * total energy  :   -30.6392227 Eh     change       -0.1381472E-04 Eh
 * total energy  :   -30.6392312 Eh     change       -0.8488393E-05 Eh
 * total energy  :   -30.6392445 Eh     change       -0.1333023E-04 Eh
 * total energy  :   -30.6392513 Eh     change       -0.6785468E-05 Eh
 * total energy  :   -30.6392550 Eh     change       -0.3677916E-05 Eh
   *** GEOMETRY OPTIMIZATION CONVERGED AFTER 31 ITERATIONS ***

 final structure:
================
25
 xtb: 6.5.1 (fef0646)
N            1.26025523274322       -0.13569450662023       -0.60156122243257
C            2.67509375495210       -0.30588093514181       -0.26721868052618
C            2.94616912240196       -1.55636956201895        0.57659337894873
C            2.60589743923179       -2.84800838375145       -0.17101884797958
C            3.00061426038255       -4.06170865193858        0.66606179200913
C            2.28267937719503       -4.03393339169918        2.01183106065308
C            2.59962057905542       -2.74124687836504        2.75725488890792
C            2.20974213869475       -1.52938452341305        1.91533371831188
Cl          -0.57130132991557        0.75414376924120        1.50148612537457
H            1.14487035031059        0.63447602506734       -1.25149412403572
H            0.33093022559610        0.29778267447804        0.56571262981921
H            0.89274563295888       -0.97598958159349       -1.03505127953389
H            2.97918885712972        0.58016695249840        0.29607351658957
H            3.29468909677261       -0.36030802204134       -1.17493139191492
H            4.02405857656678       -1.56076512653722        0.77856861151801
H            3.12682030347163       -2.87379507117381       -1.13204311732898
H            1.53121362150626       -2.89570121429585       -0.36174086957844
H            4.08075140038831       -4.05433008099751        0.82995940837453
H            2.75080607479945       -4.97879053265844        0.12814775710595
H            2.58401799378935       -4.89524664359352        2.61124619556175
H            1.20483362993371       -4.10029873248174        1.84809604148370
H            3.66903966591891       -2.70460348800948        2.97958852869047
H            2.06021005008199       -2.71832891026306        3.70561098008209
H            2.45112158339144       -0.61025305020176        2.45076758042688
H            1.13414236264747       -1.54039213448878        1.74318731947533

          :  Hamiltonian                  GFN2-xTB          :
         :: total energy             -30.639254978346 Eh    ::
         :: gradient norm              0.000455129626 Eh/a0 ::
         :: HOMO-LUMO gap              9.119663627915 eV    ::
         :: SCC energy               -30.998372929651 Eh    ::
         :: -> dispersion             -0.019039987968 Eh    ::
         :: repulsion energy           0.358934971910 Eh    ::

    * Orbital Energies and Occupations

         #    Occupation            Energy/Eh            Energy/eV
      -------------------------------------------------------------
         1        2.0000           -1.0152703             -27.6269
       ...           ...                  ...                  ...
        16        2.0000           -0.4930302             -13.4160
        17        2.0000           -0.4840204             -13.1709
        18        2.0000           -0.4681324             -12.7385
        19        2.0000           -0.4649856             -12.6529
        20        2.0000           -0.4609512             -12.5431
        21        2.0000           -0.4420461             -12.0287
        22        2.0000           -0.4384483             -11.9308
        23        2.0000           -0.4236838             -11.5290
        24        2.0000           -0.4192803             -11.4092
        25        2.0000           -0.4146055             -11.2820
        26        2.0000           -0.3965406             -10.7904
        27        2.0000           -0.3923050             -10.6752
        28        2.0000           -0.3918713             -10.6634 (HOMO)
        29                         -0.0567298              -1.5437 (LUMO)
        30                          0.0211629               0.5759
        31                          0.0523719               1.4251
        32                          0.0682545               1.8573
        33                          0.0693282               1.8865
        34                          0.0717200               1.9516
        35                          0.0749882               2.0405
        36                          0.0753044               2.0491
        37                          0.0789165               2.1474
        38                          0.1031280               2.8063
        39                          0.1064087               2.8955
       ...                                ...                  ...
        57                          0.3121637               8.4944
      -------------------------------------------------------------
                  HL-Gap            0.3351415 Eh            9.1197 eV

     #   Z          covCN         q      C6AA      α(0)
     1   7 N        2.699    -0.305    27.852     7.838
     2   6 C        3.732     0.004    20.594     6.477
     3   6 C        3.856    -0.025    20.984     6.515
     4   6 C        3.807    -0.059    21.624     6.620
     5   6 C        3.806    -0.055    21.561     6.610
     6   6 C        3.806    -0.058    21.609     6.618
     7   6 C        3.806    -0.056    21.570     6.612
     8   6 C        3.808    -0.072    21.867     6.657
     9  17 Cl       0.837    -0.489   115.279    16.425
    10   1 H        0.860     0.166     1.300     1.786
    11   1 H        0.906     0.332     0.623     1.234
    12   1 H        0.860     0.170     1.273     1.767
    13   1 H        0.924     0.050     2.319     2.382
    14   1 H        0.923     0.022     2.709     2.574
    15   1 H        0.924     0.038     2.474     2.460
    16   1 H        0.924     0.023     2.682     2.561
    17   1 H        0.924     0.032     2.551     2.498
    18   1 H        0.924     0.031     2.571     2.508
    19   1 H        0.924     0.028     2.617     2.530
    20   1 H        0.924     0.028     2.613     2.528
    21   1 H        0.924     0.035     2.519     2.482
    22   1 H        0.924     0.030     2.592     2.518
    23   1 H        0.924     0.033     2.539     2.492
    24   1 H        0.924     0.039     2.461     2.453
    25   1 H        0.925     0.057     2.236     2.338

Wiberg/Mayer (AO) data.
largest (>0.10) Wiberg bond orders for each atom

     #   Z sym  total        # sym  WBO       # sym  WBO       # sym  WBO
 ---------------------------------------------------------------------------
     1   7 N    3.242 --     2 C    1.003    10 H    0.959    12 H    0.951
                            11 H    0.211
     2   6 C    3.974 --     1 N    1.003     3 C    0.993    13 H    0.973
                            14 H    0.972
     3   6 C    3.993 --     8 C    0.998     4 C    0.997     2 C    0.993
                            15 H    0.964
     4   6 C    3.998 --     5 C    1.007     3 C    0.997    16 H    0.977
                            17 H    0.972
     5   6 C    3.998 --     6 C    1.009     4 C    1.007    19 H    0.978
                            18 H    0.977
     6   6 C    3.998 --     5 C    1.009     7 C    1.009    20 H    0.978
                            21 H    0.977
     7   6 C    3.998 --     6 C    1.009     8 C    1.008    22 H    0.977
                            23 H    0.977
     8   6 C    3.995 --     7 C    1.008     3 C    0.998    24 H    0.976
                            25 H    0.971
     9  17 Cl   0.765 --    11 H    0.672
    10   1 H    0.972 --     1 N    0.959
    11   1 H    0.890 --     9 Cl   0.672     1 N    0.211
    12   1 H    0.971 --     1 N    0.951
    13   1 H    0.997 --     2 C    0.973
    14   1 H    0.999 --     2 C    0.972
    15   1 H    0.999 --     3 C    0.964
    16   1 H    0.999 --     4 C    0.977
    17   1 H    0.999 --     4 C    0.972
    18   1 H    0.999 --     5 C    0.977
    19   1 H    0.999 --     5 C    0.978
    20   1 H    0.999 --     6 C    0.978
    21   1 H    0.999 --     6 C    0.977
    22   1 H    0.999 --     7 C    0.977
    23   1 H    0.999 --     7 C    0.977
    24   1 H    0.998 --     8 C    0.976
    25   1 H    0.997 --     8 C    0.971
 ---------------------------------------------------------------------------

molecular dipole:
                 x           y           z       tot (Debye)
 q only:        1.290      -0.741      -1.212
   full:        1.131      -0.607      -1.294       4.634

           -------------------------------------------------
          | TOTAL ENERGY              -30.639254978346 Eh   |
          | GRADIENT NORM               0.000455129626 Eh/α |
          | HOMO-LUMO GAP               9.119663627915 eV   |
           -------------------------------------------------

 * finished run on 2023/01/23 at 13:47:23.466
