   * xtb version 6.5.1 (fef0646) compiled by 'conda@b96dff2e9fd6' on 2023-01-04
          program call               : xtb init.xyz --opt -c 0 -u 0 -P 16 --alpb water

   ID    Z sym.   atoms
    1    7 N      1
    2    6 C      2, 3
    3    9 F      4
    4   17 Cl     5
    5    1 H      6-12

      * Solvation model:               ALPB
        Solvent                        water
        Solvent mass                       1.8000E+01 g/mol
          :  Hamiltonian                  GFN2-xTB          :
 * total energy  :   -20.0766971 Eh     change       -0.4278782E-09 Eh
 * total energy  :   -20.0802823 Eh     change       -0.3585240E-02 Eh
 * total energy  :   -20.0814193 Eh     change       -0.1137008E-02 Eh
 * total energy  :   -20.0817389 Eh     change       -0.3195749E-03 Eh
 * total energy  :   -20.0822559 Eh     change       -0.5170099E-03 Eh
 * total energy  :   -20.0833585 Eh     change       -0.1102549E-02 Eh
 * total energy  :   -20.0842431 Eh     change       -0.8846515E-03 Eh
 * total energy  :   -20.0852089 Eh     change       -0.9657293E-03 Eh
 * total energy  :   -20.0855653 Eh     change       -0.3564645E-03 Eh
 * total energy  :   -20.0859396 Eh     change       -0.3743243E-03 Eh
 * total energy  :   -20.0865045 Eh     change       -0.1094154E-03 Eh
 * total energy  :   -20.0865548 Eh     change       -0.5022712E-04 Eh
 * total energy  :   -20.0866017 Eh     change       -0.4691588E-04 Eh
 * total energy  :   -20.0866350 Eh     change       -0.3332359E-04 Eh
 * total energy  :   -20.0866600 Eh     change       -0.2498050E-04 Eh
 * total energy  :   -20.0866881 Eh     change       -0.2815062E-04 Eh
 * total energy  :   -20.0867024 Eh     change       -0.1422177E-04 Eh
 * total energy  :   -20.0867078 Eh     change       -0.5422195E-05 Eh
 * total energy  :   -20.0867107 Eh     change       -0.2901592E-05 Eh
   *** GEOMETRY OPTIMIZATION CONVERGED AFTER 23 ITERATIONS ***

 final structure:
================
12
 xtb: 6.5.1 (fef0646)
N            1.03361781497926        0.35791945758081        0.27523338987634
C            2.49503048685902        0.16735607801763        0.29962893960018
C            3.12318107002559        0.88153489408065        1.48443799291224
F            2.70582641941744        0.28053647471774        2.66839836945589
Cl          -0.07692765751097       -1.14914903808538       -2.10230718485076
H            0.61720122077375       -0.16921170087150       -0.53980136705927
H            0.78477425766804        1.34386364887244        0.16193558209783
H            0.60840901374338       -0.00529850820214        1.13298680356528
H            2.92466741623964        0.55436808819469       -0.62282106369591
H            2.70480809856461       -0.90077444261851        0.35681157317371
H            2.81608227242131        1.92677253966805        1.55812352341360
H            4.21089958681948        0.80129250864557        1.46699344151078

          :  Hamiltonian                  GFN2-xTB          :
         :: total energy             -20.086710688478 Eh    ::
         :: gradient norm              0.000414496723 Eh/a0 ::
         :: HOMO-LUMO gap             10.013512010383 eV    ::
         :: SCC energy               -20.231425564229 Eh    ::
         :: -> dispersion             -0.004800979809 Eh    ::
         :: -> Gsolv                  -0.074964882536 Eh    ::
         :: repulsion energy           0.144716498732 Eh    ::

    * Orbital Energies and Occupations

         #    Occupation            Energy/Eh            Energy/eV
      -------------------------------------------------------------
         1        2.0000           -1.0081178             -27.4323
       ...           ...                  ...                  ...
         5        2.0000           -0.6104945             -16.6124
         6        2.0000           -0.5785302             -15.7426
         7        2.0000           -0.5724709             -15.5777
         8        2.0000           -0.5638694             -15.3437
         9        2.0000           -0.5451385             -14.8340
        10        2.0000           -0.5325561             -14.4916
        11        2.0000           -0.5098230             -13.8730
        12        2.0000           -0.4747758             -12.9193
        13        2.0000           -0.4646078             -12.6426
        14        2.0000           -0.4570071             -12.4358
        15        2.0000           -0.4052511             -11.0274
        16        2.0000           -0.4015514             -10.9268
        17        2.0000           -0.4014205             -10.9232 (HOMO)
        18                         -0.0334308              -0.9097 (LUMO)
        19                          0.0189828               0.5165
        20                          0.0769575               2.0941
        21                          0.0814373               2.2160
        22                          0.1072233               2.9177
        23                          0.1147931               3.1237
        24                          0.1148724               3.1258
        25                          0.1173384               3.1929
        26                          0.1173426               3.1931
        27                          0.1384871               3.7684
        28                          0.1504119               4.0929
       ...                                ...                  ...
        32                          0.2617096               7.1215
      -------------------------------------------------------------
                  HL-Gap            0.3679898 Eh           10.0135 eV

     #   Z          covCN         q      C6AA      α(0)
     1   7 N        3.483    -0.164    24.534     7.357
     2   6 C        3.732    -0.033    21.262     6.582
     3   6 C        3.608     0.081    19.740     6.418
     4   9 F        0.783    -0.300    12.317     4.146
     5  17 Cl       0.074    -0.941   124.652    16.992
     6   1 H        0.930     0.302     0.702     1.310
     7   1 H        0.859     0.303     0.706     1.316
     8   1 H        0.859     0.300     0.713     1.323
     9   1 H        0.925     0.125     1.577     1.964
    10   1 H        0.925     0.121     1.609     1.984
    11   1 H        0.924     0.105     1.741     2.063
    12   1 H        0.924     0.103     1.761     2.075

Wiberg/Mayer (AO) data.
largest (>0.10) Wiberg bond orders for each atom

     #   Z sym  total        # sym  WBO       # sym  WBO       # sym  WBO
 ---------------------------------------------------------------------------
     1   7 N    3.644 --     2 C    0.979     8 H    0.896     7 H    0.893
                             6 H    0.819
     2   6 C    3.934 --     3 C    1.014     1 N    0.979    10 H    0.961
                             9 H    0.960
     3   6 C    3.868 --     2 C    1.014    12 H    0.964    11 H    0.963
                             4 F    0.906
     4   9 F    0.960 --     3 C    0.906
     5  17 Cl   0.114
     6   1 H    0.909 --     1 N    0.819
     7   1 H    0.908 --     1 N    0.893
     8   1 H    0.910 --     1 N    0.896
     9   1 H    0.984 --     2 C    0.960
    10   1 H    0.985 --     2 C    0.961
    11   1 H    0.989 --     3 C    0.963
    12   1 H    0.989 --     3 C    0.964
 ---------------------------------------------------------------------------

molecular dipole:
                 x           y           z       tot (Debye)
 q only:        2.429       3.029       3.305
   full:        2.062       2.719       2.741      11.124

           -------------------------------------------------
          | TOTAL ENERGY              -20.086710688478 Eh   |
          | GRADIENT NORM               0.000414496723 Eh/α |
          | HOMO-LUMO GAP              10.013512010383 eV   |
           -------------------------------------------------

 * finished run on 2023/01/24 at 14:58:03.703
