   * xtb version 6.5.1 (fef0646) compiled by 'conda@b96dff2e9fd6' on 2023-01-04
          program call               : xtb init.xyz --opt -c 0 -u 0 -P 16 --alpb water

   ID    Z sym.   atoms
    1    7 N      1
    2    6 C      2-6
    3   16 S      7
    4   17 Cl     8
    5    1 H      9-16

      * Solvation model:               ALPB
        Solvent                        water
        Solvent mass                       1.8000E+01 g/mol
          :  Hamiltonian                  GFN2-xTB          :
 * total energy  :   -25.5051709 Eh     change       -0.1796572E-09 Eh
 * total energy  :   -25.5101649 Eh     change       -0.4994058E-02 Eh
 * total energy  :   -25.5113591 Eh     change       -0.1194140E-02 Eh
 * total energy  :   -25.5118289 Eh     change       -0.4698078E-03 Eh
 * total energy  :   -25.5120664 Eh     change       -0.2375047E-03 Eh
 * total energy  :   -25.5122944 Eh     change       -0.2280054E-03 Eh
 * total energy  :   -25.5124960 Eh     change       -0.2015854E-03 Eh
 * total energy  :   -25.5126328 Eh     change       -0.1368351E-03 Eh
 * total energy  :   -25.5127105 Eh     change       -0.7772438E-04 Eh
 * total energy  :   -25.5127581 Eh     change       -0.4759629E-04 Eh
 * total energy  :   -25.5128737 Eh     change       -0.6466218E-04 Eh
 * total energy  :   -25.5129040 Eh     change       -0.3034069E-04 Eh
 * total energy  :   -25.5129613 Eh     change       -0.5725934E-04 Eh
 * total energy  :   -25.5129962 Eh     change       -0.3495552E-04 Eh
 * total energy  :   -25.5130335 Eh     change       -0.3725373E-04 Eh
 * total energy  :   -25.5130590 Eh     change       -0.2548475E-04 Eh
 * total energy  :   -25.5130811 Eh     change       -0.2217087E-04 Eh
 * total energy  :   -25.5130938 Eh     change       -0.1260834E-04 Eh
 * total energy  :   -25.5130978 Eh     change       -0.4004331E-05 Eh
   *** GEOMETRY OPTIMIZATION CONVERGED AFTER 20 ITERATIONS ***

 final structure:
================
16
 xtb: 6.5.1 (fef0646)
N            1.28888261321373       -0.38166781075395       -0.32739115976469
C            2.73951876403139       -0.08048548284040       -0.24453962006750
C            3.05004160376633        1.18715237263441       -0.96238404535418
C            3.06217849626976        2.45682116277499       -0.47595644460983
C            3.35270632858339        3.42293630965139       -1.46526934936772
C            3.55232194318443        2.87615768547625       -2.69153963816662
S            3.39154781986178        1.17243814352453       -2.66602898048138
Cl          -0.26514596843281        1.83557396519426        1.08318279198083
H            1.06619934985611       -1.25581307994902        0.15549742752751
H            0.98610669867644       -0.43832972949433       -1.30379699159566
H            0.73684619304935        0.38662632043529        0.13560420461749
H            3.30112150729903       -0.90299311288439       -0.68909011776381
H            3.00724857053991        0.03131793567580        0.80617247606248
H            2.85139538043117        2.69786624456728        0.55005936728982
H            3.40729050871580        4.47938267985228       -1.27130526424227
H            3.78524019095425        3.37029639613521       -3.61372465606436

          :  Hamiltonian                  GFN2-xTB          :
         :: total energy             -25.513097758003 Eh    ::
         :: gradient norm              0.000535198971 Eh/a0 ::
         :: HOMO-LUMO gap              3.946718320803 eV    ::
         :: SCC energy               -25.816403365383 Eh    ::
         :: -> dispersion             -0.013106339620 Eh    ::
         :: -> Gsolv                  -0.072872040104 Eh    ::
         :: repulsion energy           0.303242419685 Eh    ::

    * Orbital Energies and Occupations

         #    Occupation            Energy/Eh            Energy/eV
      -------------------------------------------------------------
         1        2.0000           -1.0065104             -27.3885
       ...           ...                  ...                  ...
        11        2.0000           -0.5402618             -14.7013
        12        2.0000           -0.5172454             -14.0750
        13        2.0000           -0.4873647             -13.2619
        14        2.0000           -0.4783120             -13.0155
        15        2.0000           -0.4692436             -12.7688
        16        2.0000           -0.4636979             -12.6179
        17        2.0000           -0.4500513             -12.2465
        18        2.0000           -0.4455156             -12.1231
        19        2.0000           -0.4041719             -10.9981
        20        2.0000           -0.4006887             -10.9033
        21        2.0000           -0.4005736             -10.9002
        22        2.0000           -0.3948779             -10.7452
        23        2.0000           -0.3909081             -10.6372 (HOMO)
        24                         -0.2458689              -6.6904 (LUMO)
        25                         -0.2032681              -5.5312
        26                         -0.1682824              -4.5792
        27                         -0.1156859              -3.1480
        28                         -0.0219186              -0.5964
        29                         -0.0033877              -0.0922
        30                          0.0308361               0.8391
        31                          0.0397266               1.0810
        32                          0.0845309               2.3002
        33                          0.1028596               2.7990
        34                          0.1086083               2.9554
       ...                                ...                  ...
        50                          0.7015881              19.0912
      -------------------------------------------------------------
                  HL-Gap            0.1450392 Eh            3.9467 eV

     #   Z          covCN         q      C6AA      α(0)
     1   7 N        3.484    -0.170    24.677     7.378
     2   6 C        3.756    -0.033    21.212     6.567
     3   6 C        2.990     0.016    27.649     8.625
     4   6 C        3.118    -0.046    28.976     8.817
     5   6 C        3.125    -0.049    29.012     8.820
     6   6 C        2.938    -0.030    28.746     8.793
     7  16 S        2.342    -0.012   141.530    20.023
     8  17 Cl       0.052    -0.947   124.864    17.006
     9   1 H        0.859     0.312     0.678     1.289
    10   1 H        0.859     0.300     0.713     1.323
    11   1 H        0.909     0.295     0.725     1.332
    12   1 H        0.924     0.129     1.540     1.941
    13   1 H        0.925     0.116     1.645     2.006
    14   1 H        0.926     0.043     2.406     2.425
    15   1 H        0.926     0.029     2.600     2.522
    16   1 H        0.926     0.046     2.369     2.407

Wiberg/Mayer (AO) data.
largest (>0.10) Wiberg bond orders for each atom

     #   Z sym  total        # sym  WBO       # sym  WBO       # sym  WBO
 ---------------------------------------------------------------------------
     1   7 N    3.643 --     2 C    0.958    10 H    0.895     9 H    0.888
                            11 H    0.832
     2   6 C    3.933 --     3 C    1.026     1 N    0.958    12 H    0.958
                            13 H    0.958
     3   6 C    3.947 --     4 C    1.603     7 S    1.157     2 C    1.026
                             6 C    0.116
     4   6 C    3.990 --     3 C    1.603     5 C    1.273    14 H    0.963
     5   6 C    3.989 --     6 C    1.632     4 C    1.273    15 H    0.965
     6   6 C    3.953 --     5 C    1.632     7 S    1.199    16 H    0.971
                             3 C    0.116
     7  16 S    2.622 --     6 C    1.199     3 C    1.157
     8  17 Cl   0.103
     9   1 H    0.902 --     1 N    0.888
    10   1 H    0.910 --     1 N    0.895
    11   1 H    0.913 --     1 N    0.832
    12   1 H    0.983 --     2 C    0.958
    13   1 H    0.986 --     2 C    0.958
    14   1 H    0.998 --     4 C    0.963
    15   1 H    0.999 --     5 C    0.965
    16   1 H    0.998 --     6 C    0.971
 ---------------------------------------------------------------------------

molecular dipole:
                 x           y           z       tot (Debye)
 q only:        2.944      -4.069      -2.362
   full:        2.466      -3.081      -1.947      11.186

           -------------------------------------------------
          | TOTAL ENERGY              -25.513097758003 Eh   |
          | GRADIENT NORM               0.000535198971 Eh/α |
          | HOMO-LUMO GAP               3.946718320803 eV   |
           -------------------------------------------------

 * finished run on 2023/01/24 at 14:55:58.731
