   * xtb version 6.5.1 (fef0646) compiled by 'conda@b96dff2e9fd6' on 2023-01-04
          program call               : xtb init.xyz --opt -c 1 -u 0 -P 16 --input xtb.inp

   ID    Z sym.   atoms
    1    7 N      1
    2    6 C      2-9
    3    1 H      10-21

          :  Hamiltonian                  GFN2-xTB          :
 * total energy  :   -25.7240907 Eh     change       -0.3074945E-09 Eh
 * total energy  :   -25.7262300 Eh     change       -0.2139281E-02 Eh
 * total energy  :   -25.7265568 Eh     change       -0.3267863E-03 Eh
 * total energy  :   -25.7266099 Eh     change       -0.5312753E-04 Eh
 * total energy  :   -25.7266370 Eh     change       -0.2710214E-04 Eh
 * total energy  :   -25.7266547 Eh     change       -0.1764128E-04 Eh
 * total energy  :   -25.7266673 Eh     change       -0.1266111E-04 Eh
 * total energy  :   -25.7266908 Eh     change       -0.2350590E-04 Eh
 * total energy  :   -25.7267094 Eh     change       -0.1854559E-04 Eh
 * total energy  :   -25.7267245 Eh     change       -0.1509922E-04 Eh
 * total energy  :   -25.7275937 Eh     change       -0.1339189E-04 Eh
 * total energy  :   -25.7276053 Eh     change       -0.1159121E-04 Eh
 * total energy  :   -25.7276151 Eh     change       -0.9786941E-05 Eh
 * total energy  :   -25.7276203 Eh     change       -0.5196784E-05 Eh
 * total energy  :   -25.7276258 Eh     change       -0.5554325E-05 Eh
 * total energy  :   -25.7276320 Eh     change       -0.6112055E-05 Eh
 * total energy  :   -25.7276379 Eh     change       -0.5967312E-05 Eh
 * total energy  :   -25.7276430 Eh     change       -0.5125665E-05 Eh
 * total energy  :   -25.7276470 Eh     change       -0.3970610E-05 Eh
   *** GEOMETRY OPTIMIZATION CONVERGED AFTER 49 ITERATIONS ***

 final structure:
================
21
 xtb: 6.5.1 (fef0646)
N            2.70355096329894        0.14873054355033        1.54509203336166
C            2.42344210813485        0.04722259689077        0.05496778422442
C            0.93949314836234        0.28043028614352       -0.16884894981606
C            2.90007922505844       -1.30207654425530       -0.42069146453545
C            3.89639098879454       -1.38927422211862       -1.38457739537589
C            4.33431526340538       -2.62662946829342       -1.82474540344286
C            3.78510594108913       -3.78416946497128       -1.29989427351040
C            2.79279519778558       -3.70413465793860       -0.33614240753380
C            2.35103899180927       -2.46929531105043        0.10295832747593
H            3.71233275462796        0.09056823153948        1.72897372631724
H            2.24234585384730       -0.64434422297160        2.01212814164603
H            2.33434810406591        1.02675145917181        1.93057686054021
H            3.00084314526106        0.83691364910583       -0.43353677565377
H            0.33648005955240       -0.47148546325501        0.33305971809696
H            0.72533850843246        0.21604820851011       -1.23198498364631
H            0.63826847069400        1.26835442673266        0.17211470598437
H            4.32349835910755       -0.48879581944353       -1.80021511813778
H            5.10493577900943       -2.68425421711099       -2.57672401288467
H            4.12579174204090       -4.74795640661540       -1.64285720969178
H            2.35865970695312       -4.60349476667749        0.07107902924620
H            1.56290568866927       -2.42897883694235        0.84330766733605

          :  Hamiltonian                  GFN2-xTB          :
         :: total energy             -25.727647017718 Eh    ::
         :: gradient norm              0.000148692992 Eh/a0 ::
         :: HOMO-LUMO gap              4.648828227697 eV    ::
         :: SCC energy               -26.179196165886 Eh    ::
         :: -> dispersion             -0.015097261257 Eh    ::
         :: repulsion energy           0.451461183221 Eh    ::

    * Orbital Energies and Occupations

         #    Occupation            Energy/Eh            Energy/eV
      -------------------------------------------------------------
         1        2.0000           -0.8826889             -24.0192
       ...           ...                  ...                  ...
        12        2.0000           -0.6722162             -18.2919
        13        2.0000           -0.6588758             -17.9289
        14        2.0000           -0.6382324             -17.3672
        15        2.0000           -0.6273271             -17.0704
        16        2.0000           -0.6244997             -16.9935
        17        2.0000           -0.6188410             -16.8395
        18        2.0000           -0.6102577             -16.6060
        19        2.0000           -0.6094582             -16.5842
        20        2.0000           -0.6043304             -16.4447
        21        2.0000           -0.5569275             -15.1548
        22        2.0000           -0.5526752             -15.0391
        23        2.0000           -0.5394194             -14.6783
        24        2.0000           -0.5386903             -14.6585 (HOMO)
        25                         -0.3678490             -10.0097 (LUMO)
        26                         -0.3565153              -9.7013
        27                         -0.2571279              -6.9968
        28                         -0.2226452              -6.0585
        29                         -0.1561593              -4.2493
        30                         -0.0974096              -2.6507
        31                         -0.0865820              -2.3560
        32                         -0.0659043              -1.7933
        33                         -0.0247260              -0.6728
        34                         -0.0086720              -0.2360
        35                          0.0094712               0.2577
       ...                                ...                  ...
        48                          0.5302723              14.4294
      -------------------------------------------------------------
                  HL-Gap            0.1708413 Eh            4.6488 eV

     #   Z          covCN         q      C6AA      α(0)
     1   7 N        3.484    -0.143    24.079     7.288
     2   6 C        3.784     0.023    20.197     6.402
     3   6 C        3.755    -0.138    23.218     6.871
     4   6 C        2.973    -0.016    28.413     8.743
     5   6 C        2.923    -0.034    28.857     8.809
     6   6 C        2.919    -0.018    28.454     8.747
     7   6 C        2.920    -0.016    28.407     8.740
     8   6 C        2.919    -0.021    28.520     8.757
     9   6 C        2.922    -0.042    29.032     8.836
    10   1 H        0.859     0.263     0.833     1.430
    11   1 H        0.859     0.270     0.809     1.409
    12   1 H        0.859     0.266     0.826     1.423
    13   1 H        0.924     0.092     1.862     2.134
    14   1 H        0.925     0.073     2.051     2.240
    15   1 H        0.925     0.098     1.808     2.103
    16   1 H        0.925     0.068     2.108     2.271
    17   1 H        0.926     0.048     2.340     2.392
    18   1 H        0.926     0.066     2.134     2.284
    19   1 H        0.926     0.067     2.119     2.276
    20   1 H        0.926     0.061     2.183     2.311
    21   1 H        0.925     0.032     2.559     2.502

Wiberg/Mayer (AO) data.
largest (>0.10) Wiberg bond orders for each atom

     #   Z sym  total        # sym  WBO       # sym  WBO       # sym  WBO
 ---------------------------------------------------------------------------
     1   7 N    3.666 --    10 H    0.916    12 H    0.912    11 H    0.903
                             2 C    0.880
     2   6 C    3.889 --     3 C    1.010     4 C    0.992    13 H    0.959
                             1 N    0.880
     3   6 C    3.979 --     2 C    1.010    16 H    0.979    14 H    0.978
                            15 H    0.970
     4   6 C    3.975 --     5 C    1.414     9 C    1.403     2 C    0.992
                             7 C    0.108
     5   6 C    3.991 --     6 C    1.440     4 C    1.414    17 H    0.967
                             8 C    0.108
     6   6 C    3.989 --     7 C    1.442     5 C    1.440    18 H    0.968
                             9 C    0.110
     7   6 C    3.987 --     6 C    1.442     8 C    1.433    19 H    0.968
                             4 C    0.108
     8   6 C    3.990 --     9 C    1.449     7 C    1.433    20 H    0.968
                             5 C    0.108
     9   6 C    3.992 --     8 C    1.449     4 C    1.403    21 H    0.963
                             6 C    0.110
    10   1 H    0.931 --     1 N    0.916
    11   1 H    0.927 --     1 N    0.903
    12   1 H    0.929 --     1 N    0.912
    13   1 H    0.991 --     2 C    0.959
    14   1 H    0.995 --     3 C    0.978
    15   1 H    0.990 --     3 C    0.970
    16   1 H    0.995 --     3 C    0.979
    17   1 H    0.998 --     5 C    0.967
    18   1 H    0.995 --     6 C    0.968
    19   1 H    0.995 --     7 C    0.968
    20   1 H    0.996 --     8 C    0.968
    21   1 H    0.999 --     9 C    0.963
 ---------------------------------------------------------------------------

molecular dipole:
                 x           y           z       tot (Debye)
 q only:        5.104      -0.586       1.828
   full:        5.143      -0.492       2.065      14.142

           -------------------------------------------------
          | TOTAL ENERGY              -25.727647017718 Eh   |
          | GRADIENT NORM               0.000148692992 Eh/α |
          | HOMO-LUMO GAP               4.648828227697 eV   |
           -------------------------------------------------

 * finished run on 2023/01/23 at 21:12:30.005
