   * xtb version 6.5.1 (fef0646) compiled by 'conda@b96dff2e9fd6' on 2023-01-04
          program call               : xtb init.xyz --opt -c 0 -u 0 -P 16

   ID    Z sym.   atoms
    1    7 N      1
    2    6 C      2-11
    3   16 S      12, 13
    4   17 Cl     14
    5    1 H      15-26

          :  Hamiltonian                  GFN2-xTB          :
 * total energy  :   -41.4363448 Eh     change       -0.3823303E-08 Eh
 * total energy  :   -41.4429208 Eh     change       -0.6575986E-02 Eh
 * total energy  :   -41.4489114 Eh     change       -0.5990594E-02 Eh
 * total energy  :   -41.4543841 Eh     change       -0.5472751E-02 Eh
 * total energy  :   -41.4596743 Eh     change       -0.5290141E-02 Eh
 * total energy  :   -41.4623193 Eh     change       -0.2644981E-02 Eh
 * total energy  :   -41.4642145 Eh     change       -0.1895210E-02 Eh
 * total energy  :   -41.4654079 Eh     change       -0.1193457E-02 Eh
 * total energy  :   -41.4667602 Eh     change       -0.1352258E-02 Eh
 * total energy  :   -41.4672731 Eh     change       -0.5129504E-03 Eh
 * total energy  :   -41.4710938 Eh     change       -0.3525845E-04 Eh
 * total energy  :   -41.4711277 Eh     change       -0.3395383E-04 Eh
 * total energy  :   -41.4711616 Eh     change       -0.3387022E-04 Eh
 * total energy  :   -41.4711929 Eh     change       -0.3132141E-04 Eh
 * total energy  :   -41.4712031 Eh     change       -0.1013601E-04 Eh
 * total energy  :   -41.4712131 Eh     change       -0.1001369E-04 Eh
 * total energy  :   -41.4712216 Eh     change       -0.8536280E-05 Eh
 * total energy  :   -41.4712303 Eh     change       -0.8744198E-05 Eh
 * total energy  :   -41.4712351 Eh     change       -0.4770355E-05 Eh
   *** GEOMETRY OPTIMIZATION CONVERGED AFTER 36 ITERATIONS ***

 final structure:
================
26
 xtb: 6.5.1 (fef0646)
N            1.18449995402687        0.51284914387409        0.07413545803713
C            2.64345766115851        0.45724337740286        0.09267825290550
C            3.12523787751223       -0.07466268547586        1.44848913237550
C            4.60713886507232       -0.21020014988375        1.47225560266035
C            5.35626409587012       -1.33521423794789        1.31210450803682
C            6.74268673254134       -1.09732363418390        1.35421688569626
C            7.05990963418455        0.22116570419711        1.54219480570416
C            8.35290191273606        0.81836936347437        1.64545642156364
C            8.67168769124500        2.13755468001662        1.83482215919345
C           10.05887654881732        2.36715539253521        1.89909247739656
C           10.78630969861128        1.22907909256363        1.75845679533054
S            9.79227316866575       -0.15660574086662        1.54373923232000
S            5.61707539257242        1.18950358920184        1.66747195498449
Cl           0.10731169518684       -2.15556313058670        0.67345875474215
H            0.83846814209121        0.80772246150973       -0.83177427337747
H            0.83925843254662        1.15501523603500        0.77974779463262
H            0.60672141949700       -0.91239761457952        0.38888429526133
H            3.10434551252040        1.43771311933213       -0.09548947854407
H            2.96120287626935       -0.22767341478468       -0.69697114806405
H            2.66764021273807       -1.04838873321462        1.62582470058638
H            2.80008738963411        0.61072912706890        2.23503326863827
H            4.92480547121539       -2.31073162106280        1.17634679724074
H            7.48984003012863       -1.86431900522338        1.25281607643793
H            7.92758038993095        2.90866493096407        1.92465780697832
H           10.49669018692923        3.33850533601837        2.04457601988285
H           11.85135900830470        1.11162941362043        1.76809569938219

          :  Hamiltonian                  GFN2-xTB          :
         :: total energy             -41.471235118878 Eh    ::
         :: gradient norm              0.000767192284 Eh/a0 ::
         :: HOMO-LUMO gap              2.606558837517 eV    ::
         :: SCC energy               -42.008691486750 Eh    ::
         :: -> dispersion             -0.027095673052 Eh    ::
         :: repulsion energy           0.537637602432 Eh    ::

    * Orbital Energies and Occupations

         #    Occupation            Energy/Eh            Energy/eV
      -------------------------------------------------------------
         1        2.0000           -1.0217615             -27.8035
       ...           ...                  ...                  ...
        26        2.0000           -0.4691742             -12.7669
        27        2.0000           -0.4670669             -12.7095
        28        2.0000           -0.4596546             -12.5078
        29        2.0000           -0.4541836             -12.3590
        30        2.0000           -0.4508154             -12.2673
        31        2.0000           -0.4470805             -12.1657
        32        2.0000           -0.4211275             -11.4595
        33        2.0000           -0.4049131             -11.0182
        34        2.0000           -0.4013893             -10.9224
        35        2.0000           -0.3995976             -10.8736
        36        2.0000           -0.3986892             -10.8489
        37        2.0000           -0.3986268             -10.8472
        38        2.0000           -0.3699046             -10.0656 (HOMO)
        39                         -0.2741153              -7.4591 (LUMO)
        40                         -0.2217220              -6.0334
        41                         -0.2155166              -5.8645
        42                         -0.2015962              -5.4857
        43                         -0.1780439              -4.8448
        44                         -0.1500751              -4.0838
        45                         -0.1390179              -3.7829
        46                         -0.1060247              -2.8851
        47                         -0.0605138              -1.6467
        48                         -0.0164460              -0.4475
        49                          0.0010976               0.0299
       ...                                ...                  ...
        83                          0.7011504              19.0793
      -------------------------------------------------------------
                  HL-Gap            0.0957893 Eh            2.6066 eV

     #   Z          covCN         q      C6AA      α(0)
     1   7 N        2.686    -0.305    27.861     7.839
     2   6 C        3.733     0.010    20.492     6.461
     3   6 C        3.827    -0.076    21.921     6.662
     4   6 C        2.987     0.022    27.515     8.604
     5   6 C        3.109    -0.053    29.168     8.848
     6   6 C        3.107    -0.051    29.130     8.843
     7   6 C        3.022     0.019    27.556     8.611
     8   6 C        3.023     0.020    27.543     8.609
     9   6 C        3.111    -0.051    29.116     8.840
    10   6 C        3.109    -0.042    28.894     8.807
    11   6 C        2.941    -0.020    28.499     8.756
    12  16 S        2.330    -0.032   142.396    20.084
    13  16 S        2.353    -0.058   143.466    20.159
    14  17 Cl       0.838    -0.481   114.998    16.405
    15   1 H        0.860     0.168     1.285     1.776
    16   1 H        0.860     0.169     1.279     1.772
    17   1 H        0.893     0.333     0.621     1.233
    18   1 H        0.923     0.032     2.553     2.499
    19   1 H        0.924     0.055     2.255     2.348
    20   1 H        0.924     0.077     2.014     2.219
    21   1 H        0.924     0.054     2.274     2.358
    22   1 H        0.926     0.044     2.396     2.420
    23   1 H        0.926     0.044     2.396     2.421
    24   1 H        0.926     0.041     2.433     2.439
    25   1 H        0.926     0.038     2.474     2.460
    26   1 H        0.926     0.045     2.385     2.415

Wiberg/Mayer (AO) data.
largest (>0.10) Wiberg bond orders for each atom

     #   Z sym  total        # sym  WBO       # sym  WBO       # sym  WBO
 ---------------------------------------------------------------------------
     1   7 N    3.233 --     2 C    1.008    15 H    0.958    16 H    0.957
                            17 H    0.200
     2   6 C    3.972 --     1 N    1.008     3 C    0.986    19 H    0.975
                            18 H    0.972
     3   6 C    3.992 --     4 C    1.026     2 C    0.986    21 H    0.967
                            20 H    0.963
     4   6 C    3.935 --     5 C    1.582    13 S    1.151     3 C    1.026
     5   6 C    3.985 --     4 C    1.582     6 C    1.293    22 H    0.963
     6   6 C    3.986 --     7 C    1.520     5 C    1.293    23 H    0.961
     7   6 C    3.950 --     6 C    1.520     8 C    1.152    13 S    1.116
     8   6 C    3.952 --     9 C    1.516     7 C    1.152    12 S    1.127
                            11 C    0.101
     9   6 C    3.984 --     8 C    1.516    10 C    1.296    24 H    0.962
    10   6 C    3.988 --    11 C    1.608     9 C    1.296    25 H    0.965
    11   6 C    3.933 --    10 C    1.608    12 S    1.191    26 H    0.970
                             8 C    0.101
    12  16 S    2.604 --    11 C    1.191     8 C    1.127
    13  16 S    2.569 --     4 C    1.151     7 C    1.116
    14  17 Cl   0.772 --    17 H    0.685
    15   1 H    0.971 --     1 N    0.958
    16   1 H    0.971 --     1 N    0.957
    17   1 H    0.889 --    14 Cl   0.685     1 N    0.200
    18   1 H    0.999 --     2 C    0.972
    19   1 H    0.997 --     2 C    0.975
    20   1 H    0.994 --     3 C    0.963
    21   1 H    0.996 --     3 C    0.967
    22   1 H    0.998 --     5 C    0.963
    23   1 H    0.998 --     6 C    0.961
    24   1 H    0.998 --     9 C    0.962
    25   1 H    0.998 --    10 C    0.965
    26   1 H    0.997 --    11 C    0.970
 ---------------------------------------------------------------------------

molecular dipole:
                 x           y           z       tot (Debye)
 q only:        0.618       1.631      -0.357
   full:        0.503       1.578      -0.371       4.314

           -------------------------------------------------
          | TOTAL ENERGY              -41.471235118878 Eh   |
          | GRADIENT NORM               0.000767192284 Eh/α |
          | HOMO-LUMO GAP               2.606558837517 eV   |
           -------------------------------------------------

 * finished run on 2023/01/23 at 14:05:38.104
