   * xtb version 6.5.1 (fef0646) compiled by 'conda@b96dff2e9fd6' on 2023-01-04
          program call               : xtb init.xyz --opt -c 0 -u 0 -P 16 --input xtb.inp

   ID    Z sym.   atoms
    1    7 N      1
    2    6 C      2-7, 9, 10
    3   35 Br     8
    4   17 Cl     11
    5    1 H      12-22

          :  Hamiltonian                  GFN2-xTB          :
 * total energy  :   -34.2621527 Eh     change       -0.7503331E-10 Eh
 * total energy  :   -34.2696338 Eh     change       -0.7481015E-02 Eh
 * total energy  :   -34.2740453 Eh     change       -0.4411583E-02 Eh
 * total energy  :   -34.2770369 Eh     change       -0.2991564E-02 Eh
 * total energy  :   -34.2800965 Eh     change       -0.3059613E-02 Eh
 * total energy  :   -34.2817511 Eh     change       -0.1654615E-02 Eh
 * total energy  :   -34.2820633 Eh     change       -0.3122069E-03 Eh
 * total energy  :   -34.2824545 Eh     change       -0.3912034E-03 Eh
 * total energy  :   -34.2825625 Eh     change       -0.1079421E-03 Eh
 * total energy  :   -34.2826459 Eh     change       -0.8342837E-04 Eh
 * total energy  :   -34.2836210 Eh     change       -0.3840612E-04 Eh
 * total energy  :   -34.2836448 Eh     change       -0.2378376E-04 Eh
 * total energy  :   -34.2836656 Eh     change       -0.2087397E-04 Eh
 * total energy  :   -34.2836854 Eh     change       -0.1979953E-04 Eh
 * total energy  :   -34.2836976 Eh     change       -0.1212320E-04 Eh
 * total energy  :   -34.2837103 Eh     change       -0.1277746E-04 Eh
 * total energy  :   -34.2837194 Eh     change       -0.9115287E-05 Eh
 * total energy  :   -34.2837246 Eh     change       -0.5144677E-05 Eh
 * total energy  :   -34.2837291 Eh     change       -0.4509083E-05 Eh
   *** GEOMETRY OPTIMIZATION CONVERGED AFTER 28 ITERATIONS ***

 final structure:
================
22
 xtb: 6.5.1 (fef0646)
N            0.99694466826918        0.04840817710971       -0.24061687429641
C            2.45579259698730        0.09820286572015       -0.29522107953854
C            2.95596806742452        1.39267924806463        0.35492466186711
C            4.45132415233589        1.37053506185491        0.48396615620516
C            5.26365962698724        1.85188899983694       -0.53518762139818
C            6.64203822041456        1.80400050435739       -0.42950822806358
C            7.20990684518331        1.26457978576795        0.71110807872970
Br           9.10943343641020        1.19866209476986        0.86938675467616
C            6.42338086614329        0.77510256943709        1.73965742645053
C            5.04732051119061        0.82976497344380        1.61729516284256
Cl           0.23432729845098        0.06900057378707        2.59994620246709
H            0.64164707114270       -0.80362052613370       -0.65952649412122
H            0.58811724439703        0.84431068167510       -0.71940073020093
H            0.57205293047396        0.06313159587691        1.27483185110668
H            2.84081170929568        0.03106915784931       -1.32277764006596
H            2.83528503510887       -0.75891395417240        0.26598458013667
H            2.49639242704159        1.47927588621660        1.33937274305441
H            2.64377937349947        2.24524948653374       -0.25157250859536
H            4.81787052789041        2.27659755324846       -1.42290081861937
H            7.26861545022257        2.18224755902105       -1.22260181813609
H            6.88135562818067        0.35999654682939        2.62420472996602
H            4.42706631295063        0.45268115890630        2.41654546553377

          :  Hamiltonian                  GFN2-xTB          :
         :: total energy             -34.283729104557 Eh    ::
         :: gradient norm              0.000296015144 Eh/a0 ::
         :: HOMO-LUMO gap              4.046302969939 eV    ::
         :: SCC energy               -34.715746374163 Eh    ::
         :: -> dispersion             -0.019604020584 Eh    ::
         :: repulsion energy           0.432040175929 Eh    ::

    * Orbital Energies and Occupations

         #    Occupation            Energy/Eh            Energy/eV
      -------------------------------------------------------------
         1        2.0000           -1.0257461             -27.9120
       ...           ...                  ...                  ...
        19        2.0000           -0.4966769             -13.5153
        20        2.0000           -0.4903336             -13.3427
        21        2.0000           -0.4859463             -13.2233
        22        2.0000           -0.4676077             -12.7243
        23        2.0000           -0.4504943             -12.2586
        24        2.0000           -0.4458680             -12.1327
        25        2.0000           -0.4400792             -11.9752
        26        2.0000           -0.4294612             -11.6862
        27        2.0000           -0.4105378             -11.1713
        28        2.0000           -0.4088771             -11.1261
        29        2.0000           -0.4028270             -10.9615
        30        2.0000           -0.4026391             -10.9564
        31        2.0000           -0.3988465             -10.8532 (HOMO)
        32                         -0.2501476              -6.8069 (LUMO)
        33                         -0.2479340              -6.7466
        34                         -0.2047259              -5.5709
        35                         -0.1244099              -3.3854
        36                         -0.0643333              -1.7506
        37                          0.0067628               0.1840
        38                          0.0377580               1.0274
        39                          0.0398796               1.0852
        40                          0.0418876               1.1398
        41                          0.0577702               1.5720
        42                          0.0584063               1.5893
       ...                                ...                  ...
        65                          0.6338469              17.2479
      -------------------------------------------------------------
                  HL-Gap            0.1486989 Eh            4.0463 eV

     #   Z          covCN         q      C6AA      α(0)
     1   7 N        2.683    -0.307    27.897     7.844
     2   6 C        3.733     0.012    20.468     6.457
     3   6 C        3.809    -0.080    22.024     6.680
     4   6 C        2.970     0.014    27.702     8.633
     5   6 C        2.928    -0.037    28.931     8.821
     6   6 C        2.989    -0.036    28.884     8.816
     7   6 C        2.918     0.081    26.188     8.392
     8  35 Br       1.064    -0.172   189.809    22.214
     9   6 C        2.988    -0.035    28.851     8.811
    10   6 C        2.928    -0.037    28.912     8.818
    11  17 Cl       0.838    -0.480   114.938    16.401
    12   1 H        0.860     0.167     1.289     1.778
    13   1 H        0.860     0.168     1.285     1.776
    14   1 H        0.890     0.334     0.618     1.231
    15   1 H        0.923     0.027     2.635     2.539
    16   1 H        0.924     0.055     2.258     2.350
    17   1 H        0.925     0.075     2.036     2.232
    18   1 H        0.924     0.047     2.361     2.403
    19   1 H        0.926     0.041     2.431     2.438
    20   1 H        0.926     0.054     2.274     2.358
    21   1 H        0.926     0.056     2.248     2.344
    22   1 H        0.926     0.053     2.278     2.360

Wiberg/Mayer (AO) data.
largest (>0.10) Wiberg bond orders for each atom

     #   Z sym  total        # sym  WBO       # sym  WBO       # sym  WBO
 ---------------------------------------------------------------------------
     1   7 N    3.228 --     2 C    1.007    12 H    0.958    13 H    0.958
                            14 H    0.196
     2   6 C    3.974 --     1 N    1.007     3 C    0.988    16 H    0.974
                            15 H    0.973
     3   6 C    3.992 --     4 C    1.011     2 C    0.988    18 H    0.972
                            17 H    0.966
     4   6 C    3.989 --     5 C    1.411    10 C    1.407     3 C    1.011
     5   6 C    3.991 --     6 C    1.442     4 C    1.411    19 H    0.967
                             9 C    0.108
     6   6 C    3.990 --     5 C    1.442     7 C    1.411    20 H    0.968
                            10 C    0.109
     7   6 C    3.937 --     6 C    1.411     9 C    1.408     8 Br   0.980
     8  35 Br   1.111 --     7 C    0.980
     9   6 C    3.990 --    10 C    1.446     7 C    1.408    21 H    0.968
                             5 C    0.108
    10   6 C    3.990 --     9 C    1.446     4 C    1.407    22 H    0.966
                             6 C    0.109
    11  17 Cl   0.773 --    14 H    0.688
    12   1 H    0.971 --     1 N    0.958
    13   1 H    0.972 --     1 N    0.958
    14   1 H    0.888 --    11 Cl   0.688     1 N    0.196
    15   1 H    0.999 --     2 C    0.973
    16   1 H    0.997 --     2 C    0.974
    17   1 H    0.994 --     3 C    0.966
    18   1 H    0.997 --     3 C    0.972
    19   1 H    0.998 --     5 C    0.967
    20   1 H    0.997 --     6 C    0.968
    21   1 H    0.997 --     9 C    0.968
    22   1 H    0.997 --    10 C    0.966
 ---------------------------------------------------------------------------

molecular dipole:
                 x           y           z       tot (Debye)
 q only:       -0.453       0.045      -1.815
   full:       -1.079       0.009      -1.797       5.328

           -------------------------------------------------
          | TOTAL ENERGY              -34.283729104557 Eh   |
          | GRADIENT NORM               0.000296015144 Eh/α |
          | HOMO-LUMO GAP               4.046302969939 eV   |
           -------------------------------------------------

 * finished run on 2023/01/23 at 19:14:50.982
