   * xtb version 6.5.1 (fef0646) compiled by 'conda@b96dff2e9fd6' on 2023-01-04
          program call               : xtb init.xyz --opt -c 0 -u 0 -P 16 --alpb water

   ID    Z sym.   atoms
    1    7 N      1
    2    6 C      2, 3
    3    9 F      4
    4   17 Cl     5
    5    1 H      6-12

      * Solvation model:               ALPB
        Solvent                        water
        Solvent mass                       1.8000E+01 g/mol
          :  Hamiltonian                  GFN2-xTB          :
 * total energy  :   -20.0829398 Eh     change       -0.9687540E-10 Eh
 * total energy  :   -20.0869372 Eh     change       -0.3997424E-02 Eh
 * total energy  :   -20.0879084 Eh     change       -0.9712014E-03 Eh
 * total energy  :   -20.0882465 Eh     change       -0.3380695E-03 Eh
 * total energy  :   -20.0884273 Eh     change       -0.1807569E-03 Eh
 * total energy  :   -20.0886198 Eh     change       -0.1925082E-03 Eh
 * total energy  :   -20.0888145 Eh     change       -0.1947140E-03 Eh
 * total energy  :   -20.0889017 Eh     change       -0.8720052E-04 Eh
 * total energy  :   -20.0889258 Eh     change       -0.2407256E-04 Eh
 * total energy  :   -20.0889354 Eh     change       -0.9608033E-05 Eh
 * total energy  :   -20.0889378 Eh     change       -0.2417373E-05 Eh
   *** GEOMETRY OPTIMIZATION CONVERGED AFTER 11 ITERATIONS ***

 final structure:
================
12
 xtb: 6.5.1 (fef0646)
N            1.14142727045203        0.01805904756466        0.40862584751245
C            2.60662949666728       -0.06431418164159        0.25521922191165
C            3.12997132950585        1.21370336927317       -0.37474654456816
F            3.02799955662867        2.25901232199201        0.54105925981320
Cl           0.05071572269479        0.70092643296674       -2.35185801981343
H            0.75033365130309       -0.84821332976137        0.78563129641070
H            0.70277162646303        0.20317640922982       -0.53278912916212
H            0.89026642838828        0.80598654358957        1.01267106639685
H            2.85341696159554       -0.89021239555968       -0.40974199006600
H            3.07530333139866       -0.21360822805787        1.22922066057167
H            2.52843213432187        1.49645606639031       -1.24165918386795
H            4.18603249058098        1.14185794401424       -0.63618248513874

          :  Hamiltonian                  GFN2-xTB          :
         :: total energy             -20.088937794494 Eh    ::
         :: gradient norm              0.000551008091 Eh/a0 ::
         :: HOMO-LUMO gap             10.052888170348 eV    ::
         :: SCC energy               -20.233643301726 Eh    ::
         :: -> dispersion             -0.005271188727 Eh    ::
         :: -> Gsolv                  -0.076000485728 Eh    ::
         :: repulsion energy           0.144695834095 Eh    ::

    * Orbital Energies and Occupations

         #    Occupation            Energy/Eh            Energy/eV
      -------------------------------------------------------------
         1        2.0000           -1.0093179             -27.4649
       ...           ...                  ...                  ...
         5        2.0000           -0.6074190             -16.5287
         6        2.0000           -0.5757520             -15.6670
         7        2.0000           -0.5755717             -15.6621
         8        2.0000           -0.5597867             -15.2326
         9        2.0000           -0.5388360             -14.6625
        10        2.0000           -0.5290382             -14.3959
        11        2.0000           -0.5108705             -13.9015
        12        2.0000           -0.4737282             -12.8908
        13        2.0000           -0.4616385             -12.5618
        14        2.0000           -0.4535790             -12.3425
        15        2.0000           -0.4056533             -11.0384
        16        2.0000           -0.4029060             -10.9636
        17        2.0000           -0.4024619             -10.9515 (HOMO)
        18                         -0.0330251              -0.8987 (LUMO)
        19                          0.0220331               0.5996
        20                          0.0744599               2.0262
        21                          0.0889635               2.4208
        22                          0.1028867               2.7997
        23                          0.1130416               3.0760
        24                          0.1141733               3.1068
        25                          0.1157358               3.1493
        26                          0.1162500               3.1633
        27                          0.1433748               3.9014
        28                          0.1559365               4.2432
       ...                                ...                  ...
        32                          0.2684145               7.3039
      -------------------------------------------------------------
                  HL-Gap            0.3694368 Eh           10.0529 eV

     #   Z          covCN         q      C6AA      α(0)
     1   7 N        3.484    -0.168    24.630     7.371
     2   6 C        3.732    -0.036    21.304     6.588
     3   6 C        3.609     0.085    19.659     6.404
     4   9 F        0.783    -0.300    12.319     4.146
     5  17 Cl       0.055    -0.944   124.753    16.999
     6   1 H        0.859     0.313     0.675     1.287
     7   1 H        0.912     0.301     0.707     1.315
     8   1 H        0.859     0.300     0.713     1.323
     9   1 H        0.925     0.126     1.565     1.957
    10   1 H        0.924     0.132     1.521     1.928
    11   1 H        0.924     0.093     1.851     2.127
    12   1 H        0.924     0.097     1.810     2.104

Wiberg/Mayer (AO) data.
largest (>0.10) Wiberg bond orders for each atom

     #   Z sym  total        # sym  WBO       # sym  WBO       # sym  WBO
 ---------------------------------------------------------------------------
     1   7 N    3.641 --     2 C    0.978     8 H    0.895     6 H    0.889
                             7 H    0.825
     2   6 C    3.933 --     3 C    1.014     1 N    0.978     9 H    0.960
                            10 H    0.959
     3   6 C    3.870 --     2 C    1.014    12 H    0.965    11 H    0.964
                             4 F    0.905
     4   9 F    0.959 --     3 C    0.905
     5  17 Cl   0.109
     6   1 H    0.902 --     1 N    0.889
     7   1 H    0.910 --     1 N    0.825
     8   1 H    0.910 --     1 N    0.895
     9   1 H    0.984 --     2 C    0.960
    10   1 H    0.983 --     2 C    0.959
    11   1 H    0.991 --     3 C    0.964
    12   1 H    0.991 --     3 C    0.965
 ---------------------------------------------------------------------------

molecular dipole:
                 x           y           z       tot (Debye)
 q only:        2.169      -2.058       4.292
   full:        1.747      -1.887       3.605      11.256

           -------------------------------------------------
          | TOTAL ENERGY              -20.088937794494 Eh   |
          | GRADIENT NORM               0.000551008091 Eh/α |
          | HOMO-LUMO GAP              10.052888170348 eV   |
           -------------------------------------------------

 * finished run on 2023/01/24 at 16:46:39.484
