   * xtb version 6.5.1 (fef0646) compiled by 'conda@b96dff2e9fd6' on 2023-01-04
          program call               : xtb init.xyz --opt -c 0 -u 0 -P 16 --input xtb.inp

   ID    Z sym.   atoms
    1    7 N      1
    2    6 C      2, 3
    3    9 F      4
    4   17 Cl     5
    5    1 H      6-12

          :  Hamiltonian                  GFN2-xTB          :
 * total energy  :   -20.0128577 Eh     change       -0.8725607E-09 Eh
 * total energy  :   -20.0121386 Eh     change        0.7191796E-03 Eh
 * total energy  :   -20.0185420 Eh     change       -0.6403443E-02 Eh
 * total energy  :   -20.0232888 Eh     change       -0.4746768E-02 Eh
 * total energy  :   -20.0285598 Eh     change       -0.5271022E-02 Eh
 * total energy  :   -20.0364435 Eh     change       -0.7883660E-02 Eh
 * total energy  :   -20.0391279 Eh     change       -0.2684479E-02 Eh
 * total energy  :   -20.0405087 Eh     change       -0.1380784E-02 Eh
 * total energy  :   -20.0418462 Eh     change       -0.1337514E-02 Eh
 * total energy  :   -20.0427689 Eh     change       -0.9226346E-03 Eh
 * total energy  :   -20.0448366 Eh     change       -0.7014041E-04 Eh
 * total energy  :   -20.0449108 Eh     change       -0.7424602E-04 Eh
 * total energy  :   -20.0449296 Eh     change       -0.1875134E-04 Eh
 * total energy  :   -20.0449456 Eh     change       -0.1604978E-04 Eh
 * total energy  :   -20.0449545 Eh     change       -0.8857209E-05 Eh
 * total energy  :   -20.0449652 Eh     change       -0.1074539E-04 Eh
 * total energy  :   -20.0449771 Eh     change       -0.1185729E-04 Eh
 * total energy  :   -20.0449848 Eh     change       -0.7757255E-05 Eh
 * total energy  :   -20.0449896 Eh     change       -0.4796688E-05 Eh
   *** GEOMETRY OPTIMIZATION CONVERGED AFTER 30 ITERATIONS ***

 final structure:
================
12
 xtb: 6.5.1 (fef0646)
N            1.03141045354538        0.31147279691721        0.34697053436294
C            2.48104744809355        0.17626771226100        0.35300500763714
C            3.16173792788205        0.92193238524928        1.50105669648242
F            2.74148956751143        0.40365438377033        2.70382138080360
Cl          -0.02672534002356       -0.97761256340674       -2.09741080786248
H            0.43592237978977       -0.41316825470848       -0.96006213235622
H            0.75669812778225        1.28709114065602        0.29029881204715
H            0.63741299130064       -0.08351652774885        1.19544678682200
H            2.87094676891713        0.55840020286975       -0.59224234155561
H            2.71620375861225       -0.88761164023953        0.42529364597663
H            2.89283433469775        1.98418477521509        1.50864208537264
H            4.24859158189182        0.80811558916481        1.46480033226955

          :  Hamiltonian                  GFN2-xTB          :
         :: total energy             -20.044989632594 Eh    ::
         :: gradient norm              0.000341702295 Eh/a0 ::
         :: HOMO-LUMO gap              9.178410263957 eV    ::
         :: SCC energy               -20.182817950336 Eh    ::
         :: -> dispersion             -0.005301466795 Eh    ::
         :: repulsion energy           0.137829657880 Eh    ::

    * Orbital Energies and Occupations

         #    Occupation            Energy/Eh            Energy/eV
      -------------------------------------------------------------
         1        2.0000           -1.0249099             -27.8892
       ...           ...                  ...                  ...
         5        2.0000           -0.6146155             -16.7245
         6        2.0000           -0.5800163             -15.7830
         7        2.0000           -0.5684470             -15.4682
         8        2.0000           -0.5636607             -15.3380
         9        2.0000           -0.5518403             -15.0163
        10        2.0000           -0.5272891             -14.3483
        11        2.0000           -0.5067691             -13.7899
        12        2.0000           -0.4874938             -13.2654
        13        2.0000           -0.4784725             -13.0199
        14        2.0000           -0.4706951             -12.8083
        15        2.0000           -0.4118089             -11.2059
        16        2.0000           -0.4021008             -10.9417
        17        2.0000           -0.4020132             -10.9393 (HOMO)
        18                         -0.0647129              -1.7609 (LUMO)
        19                          0.0052873               0.1439
        20                          0.0336895               0.9167
        21                          0.0574996               1.5646
        22                          0.0576636               1.5691
        23                          0.0631278               1.7178
        24                          0.0636655               1.7324
        25                          0.0636696               1.7325
        26                          0.0945362               2.5725
        27                          0.1234011               3.3579
        28                          0.1378582               3.7513
       ...                                ...                  ...
        32                          0.2580204               7.0211
      -------------------------------------------------------------
                  HL-Gap            0.3373004 Eh            9.1784 eV

     #   Z          covCN         q      C6AA      α(0)
     1   7 N        2.658    -0.309    27.957     7.853
     2   6 C        3.732    -0.006    20.770     6.505
     3   6 C        3.607     0.096    19.506     6.382
     4   9 F        0.784    -0.255    11.820     4.061
     5  17 Cl       0.840    -0.460   114.238    16.351
     6   1 H        0.869     0.333     0.623     1.236
     7   1 H        0.860     0.168     1.285     1.776
     8   1 H        0.860     0.180     1.213     1.725
     9   1 H        0.924     0.063     2.159     2.298
    10   1 H        0.924     0.075     2.028     2.227
    11   1 H        0.924     0.055     2.262     2.352
    12   1 H        0.924     0.060     2.198     2.319

Wiberg/Mayer (AO) data.
largest (>0.10) Wiberg bond orders for each atom

     #   Z sym  total        # sym  WBO       # sym  WBO       # sym  WBO
 ---------------------------------------------------------------------------
     1   7 N    3.211 --     2 C    1.021     7 H    0.957     8 H    0.954
                             6 H    0.171
     2   6 C    3.978 --     1 N    1.021     3 C    0.995     9 H    0.970
                            10 H    0.970
     3   6 C    3.901 --     2 C    0.995    11 H    0.970    12 H    0.970
                             4 F    0.937
     4   9 F    0.997 --     3 C    0.937
     5  17 Cl   0.790 --     6 H    0.715
     6   1 H    0.889 --     5 Cl   0.715     1 N    0.171
     7   1 H    0.972 --     1 N    0.957
     8   1 H    0.968 --     1 N    0.954
     9   1 H    0.996 --     2 C    0.970
    10   1 H    0.994 --     2 C    0.970
    11   1 H    0.997 --     3 C    0.970
    12   1 H    0.996 --     3 C    0.970
 ---------------------------------------------------------------------------

molecular dipole:
                 x           y           z       tot (Debye)
 q only:        0.887       0.996       0.792
   full:        0.848       1.072       0.666       3.864

           -------------------------------------------------
          | TOTAL ENERGY              -20.044989632594 Eh   |
          | GRADIENT NORM               0.000341702295 Eh/α |
          | HOMO-LUMO GAP               9.178410263957 eV   |
           -------------------------------------------------

 * finished run on 2023/01/23 at 20:54:01.595
