   * xtb version 6.5.1 (fef0646) compiled by 'conda@b96dff2e9fd6' on 2023-01-04
          program call               : xtb init.xyz --opt -c 1 -u 0 -P 16

   ID    Z sym.   atoms
    1    7 N      1
    2    6 C      2, 3, 5-20
    3    8 O      4
    4    1 H      21-36

          :  Hamiltonian                  GFN2-xTB          :
 * total energy  :   -53.2710242 Eh     change       -0.2080220E-08 Eh
 * total energy  :   -53.2774936 Eh     change       -0.6469452E-02 Eh
 * total energy  :   -53.2795800 Eh     change       -0.2086343E-02 Eh
 * total energy  :   -53.2804370 Eh     change       -0.8570105E-03 Eh
 * total energy  :   -53.2812522 Eh     change       -0.8152604E-03 Eh
 * total energy  :   -53.2820523 Eh     change       -0.8000431E-03 Eh
 * total energy  :   -53.2828581 Eh     change       -0.8058049E-03 Eh
 * total energy  :   -53.2835959 Eh     change       -0.7378061E-03 Eh
 * total energy  :   -53.2840464 Eh     change       -0.4504825E-03 Eh
 * total energy  :   -53.2842693 Eh     change       -0.2228788E-03 Eh
 * total energy  :   -53.2853010 Eh     change       -0.3254548E-04 Eh
 * total energy  :   -53.2851289 Eh     change        0.1721554E-03 Eh
 * total energy  :   -53.2853221 Eh     change       -0.1932210E-03 Eh
 * total energy  :   -53.2853424 Eh     change       -0.2028544E-04 Eh
 * total energy  :   -53.2853522 Eh     change       -0.9791776E-05 Eh
 * total energy  :   -53.2853639 Eh     change       -0.1175324E-04 Eh
 * total energy  :   -53.2853656 Eh     change       -0.1633869E-05 Eh
 * total energy  :   -53.2853757 Eh     change       -0.1010593E-04 Eh
 * total energy  :   -53.2853803 Eh     change       -0.4619669E-05 Eh
   *** GEOMETRY OPTIMIZATION CONVERGED AFTER 39 ITERATIONS ***

 final structure:
================
36
 xtb: 6.5.1 (fef0646)
N            3.07144400719932       -0.68665750210330       -0.59206317988279
C            2.86174946873386        0.28876825281669        0.51232580065201
C            3.34080832369073        1.64181935001035       -0.03250273799890
O            4.53234202603697        1.33295323886729       -0.72393596197381
C            5.09170748584980        2.28507329432565       -1.58731779635919
C            6.07118040073634        1.80116585254110       -2.46827978889427
C            6.50057866876190        0.44100222884482       -2.48370301180650
C            7.44100854651568        0.01097846965578       -3.35714352628366
C            6.66173773931565        2.71163687596861       -3.37868696683458
C            6.27226295491362        4.07499856917089       -3.38028745113894
C            5.30564588273352        4.50066582928661       -2.47173831725407
C            4.71803772442048        3.61596621933833       -1.58484558859714
C            6.88585422436273        4.96643226017902       -4.30912844400518
C            7.82497021601240        4.53142690027311       -5.18016267946599
C            8.23701400168061        3.16582199411415       -5.20360017394434
C            9.20314589456882        2.69645244441775       -6.09479461255241
C            9.58143212467380        1.36541564133859       -6.09354485127471
C            9.01037164969129        0.47214685361107       -5.20606416552605
C            8.04130231723620        0.89771138166995       -4.29554717033554
C            7.64434257072933        2.25789939354534       -4.29092350668528
H            3.23693114156137       -1.64245819427343       -0.26704837079984
H            3.93698795225984       -0.27417264343246       -1.05226254677222
H            2.29876594290705       -0.68336425426948       -1.26584669838187
H            3.49026231307867       -0.00459605890747        1.35402720893625
H            1.82156811207288        0.32484704149407        0.83090878506265
H            3.51950319436058        2.33938882894775        0.79154754535501
H            2.59930312699369        2.07844784376376       -0.71510583527893
H            6.08272397990860       -0.24521353849749       -1.75883419829898
H            7.76153233499940       -1.02080148261750       -3.35366377956084
H            5.00965792962517        5.53815133606229       -2.45769454428485
H            3.97883634182747        3.98259653109383       -0.88988615774261
H            6.57947334778439        6.00173710180581       -4.29648485302679
H            8.28571537062908        5.21293001673580       -5.87959889984681
H            9.65656045211342        3.38695191211417       -6.79035395056522
H           10.33039028832091        1.02176812717721       -6.79082013701673
H            9.31235194369531       -0.56482011506778       -5.20909943761617

          :  Hamiltonian                  GFN2-xTB          :
         :: total energy             -53.285380287634 Eh    ::
         :: gradient norm              0.000631671218 Eh/a0 ::
         :: HOMO-LUMO gap              2.355711683454 eV    ::
         :: SCC energy               -54.198788450984 Eh    ::
         :: -> dispersion             -0.039865425068 Eh    ::
         :: repulsion energy           0.913398606580 Eh    ::

    * Orbital Energies and Occupations

         #    Occupation            Energy/Eh            Energy/eV
      -------------------------------------------------------------
         1        2.0000           -0.8853657             -24.0920
       ...           ...                  ...                  ...
        37        2.0000           -0.5574824             -15.1699
        38        2.0000           -0.5526813             -15.0392
        39        2.0000           -0.5502714             -14.9736
        40        2.0000           -0.5438685             -14.7994
        41        2.0000           -0.5291280             -14.3983
        42        2.0000           -0.5252616             -14.2931
        43        2.0000           -0.5223209             -14.2131
        44        2.0000           -0.5060558             -13.7705
        45        2.0000           -0.4983171             -13.5599
        46        2.0000           -0.4963875             -13.5074
        47        2.0000           -0.4935899             -13.4313
        48        2.0000           -0.4812176             -13.0946
        49        2.0000           -0.4532521             -12.3336 (HOMO)
        50                         -0.3666813              -9.9779 (LUMO)
        51                         -0.3339251              -9.0866
        52                         -0.3109299              -8.4608
        53                         -0.2916422              -7.9360
        54                         -0.2714082              -7.3854
        55                         -0.2494839              -6.7888
        56                         -0.2156939              -5.8693
        57                         -0.1901615              -5.1746
        58                         -0.1558913              -4.2420
        59                         -0.1390851              -3.7847
        60                         -0.1155718              -3.1449
       ...                                ...                  ...
        96                          0.6414433              17.4546
      -------------------------------------------------------------
                  HL-Gap            0.0865708 Eh            2.3557 eV

     #   Z          covCN         q      C6AA      α(0)
     1   7 N        3.484    -0.146    24.151     7.299
     2   6 C        3.730    -0.036    21.315     6.590
     3   6 C        3.688     0.059    19.775     6.365
     4   8 O        1.704    -0.306    19.103     5.901
     5   6 C        2.858     0.111    25.554     8.286
     6   6 C        2.980    -0.010    28.250     8.719
     7   6 C        2.912    -0.042    29.043     8.837
     8   6 C        2.914    -0.031    28.782     8.797
     9   6 C        2.998     0.006    27.875     8.661
    10   6 C        2.981     0.013    27.729     8.638
    11   6 C        2.923    -0.037    28.913     8.818
    12   6 C        2.911    -0.064    29.584     8.919
    13   6 C        2.913    -0.034    28.835     8.805
    14   6 C        2.913    -0.029    28.724     8.788
    15   6 C        2.982     0.017    27.614     8.620
    16   6 C        2.920    -0.028    28.692     8.784
    17   6 C        2.914    -0.023    28.583     8.767
    18   6 C        2.920    -0.031    28.763     8.795
    19   6 C        2.982     0.014    27.694     8.632
    20   6 C        2.998     0.007    27.851     8.657
    21   1 H        0.859     0.263     0.834     1.431
    22   1 H        0.855     0.311     0.682     1.294
    23   1 H        0.859     0.262     0.838     1.434
    24   1 H        0.924     0.118     1.633     1.998
    25   1 H        0.925     0.108     1.711     2.046
    26   1 H        0.924     0.084     1.935     2.175
    27   1 H        0.923     0.062     2.170     2.304
    28   1 H        0.925     0.011     2.876     2.652
    29   1 H        0.926     0.041     2.434     2.439
    30   1 H        0.926     0.052     2.291     2.367
    31   1 H        0.926     0.036     2.499     2.472
    32   1 H        0.926     0.047     2.360     2.402
    33   1 H        0.926     0.050     2.321     2.382
    34   1 H        0.926     0.050     2.323     2.384
    35   1 H        0.926     0.049     2.330     2.387
    36   1 H        0.926     0.044     2.393     2.419

Wiberg/Mayer (AO) data.
largest (>0.10) Wiberg bond orders for each atom

     #   Z sym  total        # sym  WBO       # sym  WBO       # sym  WBO
 ---------------------------------------------------------------------------
     1   7 N    3.656 --     2 C    0.952    21 H    0.918    23 H    0.918
                            22 H    0.814
     2   6 C    3.911 --     3 C    0.997    25 H    0.970    24 H    0.966
                             1 N    0.952
     3   6 C    3.949 --     2 C    0.997     4 O    0.986    27 H    0.965
                            26 H    0.961
     4   8 O    2.191 --     3 C    0.986     5 C    0.957
     5   6 C    3.869 --    12 C    1.407     6 C    1.301     4 O    0.957
     6   6 C    3.986 --     5 C    1.301     9 C    1.257     7 C    1.206
     7   6 C    3.990 --     8 C    1.645     6 C    1.206    28 H    0.964
     8   6 C    3.990 --     7 C    1.645    19 C    1.206    29 H    0.967
     9   6 C    3.989 --     6 C    1.257    20 C    1.254    10 C    1.246
    10   6 C    3.990 --    11 C    1.363     9 C    1.246    13 C    1.199
    11   6 C    3.954 --    12 C    1.431    10 C    1.363    30 H    0.967
    12   6 C    3.981 --    11 C    1.431     5 C    1.407    31 H    0.965
    13   6 C    3.990 --    14 C    1.657    10 C    1.199    32 H    0.967
    14   6 C    3.985 --    13 C    1.657    15 C    1.198    33 H    0.966
    15   6 C    3.990 --    16 C    1.359    20 C    1.252    14 C    1.198
    16   6 C    3.954 --    17 C    1.439    15 C    1.359    34 H    0.968
    17   6 C    3.984 --    18 C    1.446    16 C    1.439    35 H    0.969
    18   6 C    3.955 --    17 C    1.446    19 C    1.352    36 H    0.968
    19   6 C    3.990 --    18 C    1.352    20 C    1.251     8 C    1.206
    20   6 C    3.990 --     9 C    1.254    15 C    1.252    19 C    1.251
    21   1 H    0.931 --     1 N    0.918
    22   1 H    0.903 --     1 N    0.814
    23   1 H    0.931 --     1 N    0.918
    24   1 H    0.986 --     2 C    0.966
    25   1 H    0.988 --     2 C    0.970
    26   1 H    0.992 --     3 C    0.961
    27   1 H    0.995 --     3 C    0.965
    28   1 H    0.999 --     7 C    0.964
    29   1 H    0.997 --     8 C    0.967
    30   1 H    0.996 --    11 C    0.967
    31   1 H    0.998 --    12 C    0.965
    32   1 H    0.997 --    13 C    0.967
    33   1 H    0.996 --    14 C    0.966
    34   1 H    0.997 --    16 C    0.968
    35   1 H    0.997 --    17 C    0.969
    36   1 H    0.997 --    18 C    0.968
 ---------------------------------------------------------------------------

molecular dipole:
                 x           y           z       tot (Debye)
 q only:        6.875       0.231      -2.109
   full:        6.727       0.165      -2.075      17.898

           -------------------------------------------------
          | TOTAL ENERGY              -53.285380287634 Eh   |
          | GRADIENT NORM               0.000631671218 Eh/α |
          | HOMO-LUMO GAP               2.355711683454 eV   |
           -------------------------------------------------

 * finished run on 2023/01/23 at 14:23:57.405
