   * xtb version 6.5.1 (fef0646) compiled by 'conda@b96dff2e9fd6' on 2023-01-04
          program call               : xtb init.xyz --opt -c 0 -u 0 -P 16 --input xtb.inp

   ID    Z sym.   atoms
    1    7 N      1
    2    6 C      2-13
    3   17 Cl     14
    4    1 H      15-42

          :  Hamiltonian                  GFN2-xTB          :
 * total energy  :   -47.4432995 Eh     change       -0.2667100E-08 Eh
 * total energy  :   -47.4490776 Eh     change       -0.5778129E-02 Eh
 * total energy  :   -47.4546429 Eh     change       -0.5565284E-02 Eh
 * total energy  :   -47.4589111 Eh     change       -0.4268252E-02 Eh
 * total energy  :   -47.4614422 Eh     change       -0.2531111E-02 Eh
 * total energy  :   -47.4633837 Eh     change       -0.1941459E-02 Eh
 * total energy  :   -47.4645845 Eh     change       -0.1200799E-02 Eh
 * total energy  :   -47.4651473 Eh     change       -0.5628279E-03 Eh
 * total energy  :   -47.4654293 Eh     change       -0.2819177E-03 Eh
 * total energy  :   -47.4655692 Eh     change       -0.1399854E-03 Eh
 * total energy  :   -47.4657762 Eh     change       -0.3069004E-04 Eh
 * total energy  :   -47.4657957 Eh     change       -0.1951302E-04 Eh
 * total energy  :   -47.4658050 Eh     change       -0.9287943E-05 Eh
 * total energy  :   -47.4658202 Eh     change       -0.1515769E-04 Eh
 * total energy  :   -47.4658316 Eh     change       -0.1136705E-04 Eh
 * total energy  :   -47.4658553 Eh     change       -0.2371020E-04 Eh
 * total energy  :   -47.4658713 Eh     change       -0.1605861E-04 Eh
 * total energy  :   -47.4658814 Eh     change       -0.1003793E-04 Eh
 * total energy  :   -47.4658861 Eh     change       -0.4699917E-05 Eh
   *** GEOMETRY OPTIMIZATION CONVERGED AFTER 23 ITERATIONS ***

 final structure:
================
42
 xtb: 6.5.1 (fef0646)
N            2.89038589118115       -2.21772421198041       -2.15366361639354
C            4.32833190192211       -1.95134716658098       -2.19298708803606
C            4.74080198525360       -1.01483337902105       -1.05864695008651
C            4.43728292892844       -1.54254217403674        0.34589566743561
C            5.04111401481355       -2.90918837419405        0.67491743512899
C            6.56762380804795       -2.92708671631141        0.63112812716408
C            7.12633719750845       -4.27985648977656        1.06614871851420
C            8.65180000322919       -4.31988313063810        1.02040754524826
C            9.19539936273576       -5.68569866395606        1.43212163981216
C           10.72063987374303       -5.73931888895713        1.39822374006198
C           11.24931069824828       -7.11536491253959        1.79532134626597
C           12.77440982276576       -7.17939659724669        1.77595576055091
C           13.28670527272483       -8.56184391299411        2.16086903924429
Cl           1.34516652314955        0.25483925949100       -2.01680994515937
H            2.58925191345516       -2.73293660358028       -2.97284087620455
H            2.10033775935111       -0.90485026975299       -2.08599193141806
H            2.64810336333828       -2.74855573814963       -1.32399462780900
H            4.54460332693225       -1.46370258026091       -3.14630940989198
H            4.91494509627047       -2.87892559189053       -2.14936253028647
H            4.21038384131244       -0.07102621800103       -1.18636474972169
H            5.80843820061986       -0.81541991287343       -1.15453500224859
H            3.35489924776548       -1.58873681443419        0.48195933097432
H            4.81713123656477       -0.81339949210740        1.06436751301184
H            4.65475592852295       -3.67002030139950       -0.00730091469370
H            4.71817497559904       -3.18985721550599        1.68069449376794
H            6.95568591255601       -2.14631313474134        1.28891037413159
H            6.91358856980488       -2.71043169450703       -0.38123345184383
H            6.72771088042144       -5.06121414144600        0.41376300344035
H            6.79137516772706       -4.49939564958698        2.08272633812434
H            9.05393406056395       -3.55352581817505        1.68702027750251
H            8.99047809684686       -4.08637322929019        0.00804294848701
H            8.79420981065709       -6.44923925053203        0.76105282479973
H            8.84961507551827       -5.92113544426712        2.44149340655102
H           11.12442894714068       -4.98586485821617        2.07866332661165
H           11.06925043617153       -5.49458149640978        0.39194579389966
H           10.84959755622217       -7.86606867114729        1.10913300569214
H           10.89205649337859       -7.36277728626836        2.79790558472956
H           13.17538656635444       -6.43714902574103        2.47000411768556
H           13.13367233103113       -6.92443372769456        0.77623046083739
H           12.95127075369908       -8.82780160595430        3.16105885880684
H           14.37383394973817       -8.58708661296730        2.14548229943272
H           12.91613121818484       -9.31270225635629        1.46617811587996

          :  Hamiltonian                  GFN2-xTB          :
         :: total energy             -47.465886061489 Eh    ::
         :: gradient norm              0.000521332829 Eh/a0 ::
         :: HOMO-LUMO gap              9.158898335141 eV    ::
         :: SCC energy               -48.080741255047 Eh    ::
         :: -> dispersion             -0.029195974779 Eh    ::
         :: repulsion energy           0.615040289326 Eh    ::

    * Orbital Energies and Occupations

         #    Occupation            Energy/Eh            Energy/eV
      -------------------------------------------------------------
         1        2.0000           -1.0130670             -27.5670
       ...           ...                  ...                  ...
        32        2.0000           -0.4478247             -12.1859
        33        2.0000           -0.4412489             -12.0070
        34        2.0000           -0.4377459             -11.9117
        35        2.0000           -0.4353792             -11.8473
        36        2.0000           -0.4322866             -11.7631
        37        2.0000           -0.4313777             -11.7384
        38        2.0000           -0.4271645             -11.6237
        39        2.0000           -0.4238510             -11.5336
        40        2.0000           -0.4208883             -11.4530
        41        2.0000           -0.4167086             -11.3392
        42        2.0000           -0.3954334             -10.7603
        43        2.0000           -0.3901669             -10.6170
        44        2.0000           -0.3901024             -10.6152 (HOMO)
        45                         -0.0535191              -1.4563 (LUMO)
        46                          0.0194255               0.5286
        47                          0.0320897               0.8732
        48                          0.0717366               1.9521
        49                          0.0724998               1.9728
        50                          0.0766895               2.0868
        51                          0.0776610               2.1133
        52                          0.0781951               2.1278
        53                          0.0804098               2.1881
        54                          0.0896487               2.4395
        55                          0.0951000               2.5878
       ...                                ...                  ...
        89                          0.3196474               8.6980
      -------------------------------------------------------------
                  HL-Gap            0.3365833 Eh            9.1589 eV

     #   Z          covCN         q      C6AA      α(0)
     1   7 N        2.723    -0.299    27.697     7.816
     2   6 C        3.730     0.008    20.534     6.469
     3   6 C        3.802    -0.075    21.926     6.667
     4   6 C        3.801    -0.063    21.719     6.635
     5   6 C        3.801    -0.058    21.616     6.619
     6   6 C        3.802    -0.060    21.648     6.624
     7   6 C        3.803    -0.058    21.620     6.620
     8   6 C        3.803    -0.058    21.625     6.621
     9   6 C        3.803    -0.058    21.620     6.620
    10   6 C        3.803    -0.059    21.625     6.621
    11   6 C        3.803    -0.059    21.635     6.622
    12   6 C        3.801    -0.053    21.525     6.606
    13   6 C        3.752    -0.102    22.513     6.766
    14  17 Cl       0.835    -0.501   115.706    16.456
    15   1 H        0.860     0.164     1.308     1.791
    16   1 H        0.927     0.331     0.623     1.234
    17   1 H        0.860     0.173     1.254     1.754
    18   1 H        0.924     0.047     2.356     2.400
    19   1 H        0.923     0.029     2.601     2.522
    20   1 H        0.925     0.062     2.175     2.306
    21   1 H        0.924     0.044     2.393     2.419
    22   1 H        0.924     0.039     2.458     2.452
    23   1 H        0.924     0.039     2.456     2.451
    24   1 H        0.924     0.024     2.671     2.556
    25   1 H        0.924     0.031     2.577     2.510
    26   1 H        0.924     0.032     2.557     2.501
    27   1 H        0.924     0.031     2.574     2.509
    28   1 H        0.924     0.027     2.635     2.538
    29   1 H        0.924     0.029     2.594     2.519
    30   1 H        0.924     0.030     2.584     2.514
    31   1 H        0.924     0.029     2.606     2.525
    32   1 H        0.924     0.029     2.606     2.525
    33   1 H        0.924     0.030     2.593     2.518
    34   1 H        0.924     0.029     2.599     2.521
    35   1 H        0.924     0.029     2.606     2.525
    36   1 H        0.924     0.030     2.591     2.517
    37   1 H        0.924     0.030     2.586     2.515
    38   1 H        0.924     0.029     2.603     2.523
    39   1 H        0.924     0.029     2.606     2.525
    40   1 H        0.925     0.033     2.538     2.491
    41   1 H        0.925     0.033     2.543     2.494
    42   1 H        0.925     0.033     2.541     2.493

Wiberg/Mayer (AO) data.
largest (>0.10) Wiberg bond orders for each atom

     #   Z sym  total        # sym  WBO       # sym  WBO       # sym  WBO
 ---------------------------------------------------------------------------
     1   7 N    3.261 --     2 C    1.003    15 H    0.960    17 H    0.953
                            16 H    0.227
     2   6 C    3.974 --     3 C    1.006     1 N    1.003    18 H    0.976
                            19 H    0.970
     3   6 C    3.994 --     4 C    1.007     2 C    1.006    21 H    0.973
                            20 H    0.973
     4   6 C    3.996 --     3 C    1.007     5 C    1.007    23 H    0.976
                            22 H    0.974
     5   6 C    3.997 --     6 C    1.008     4 C    1.007    25 H    0.977
                            24 H    0.975
     6   6 C    3.997 --     5 C    1.008     7 C    1.007    26 H    0.977
                            27 H    0.976
     7   6 C    3.997 --     8 C    1.007     6 C    1.007    28 H    0.977
                            29 H    0.977
     8   6 C    3.997 --     9 C    1.007     7 C    1.007    30 H    0.978
                            31 H    0.978
     9   6 C    3.997 --    10 C    1.007     8 C    1.007    33 H    0.977
                            32 H    0.977
    10   6 C    3.997 --    11 C    1.007     9 C    1.007    34 H    0.978
                            35 H    0.978
    11   6 C    3.997 --    12 C    1.008    10 C    1.007    37 H    0.977
                            36 H    0.977
    12   6 C    3.998 --    13 C    1.019    11 C    1.008    38 H    0.979
                            39 H    0.979
    13   6 C    3.997 --    12 C    1.019    42 H    0.988    40 H    0.988
                            41 H    0.988
    14  17 Cl   0.752 --    16 H    0.658
    15   1 H    0.973 --     1 N    0.960
    16   1 H    0.890 --    14 Cl   0.658     1 N    0.227
    17   1 H    0.970 --     1 N    0.953
    18   1 H    0.998 --     2 C    0.976
    19   1 H    0.999 --     2 C    0.970
    20   1 H    0.996 --     3 C    0.973
    21   1 H    0.998 --     3 C    0.973
    22   1 H    0.998 --     4 C    0.974
    23   1 H    0.998 --     4 C    0.976
    24   1 H    0.999 --     5 C    0.975
    25   1 H    0.999 --     5 C    0.977
    26   1 H    0.999 --     6 C    0.977
    27   1 H    0.999 --     6 C    0.976
    28   1 H    0.999 --     7 C    0.977
    29   1 H    0.999 --     7 C    0.977
    30   1 H    0.999 --     8 C    0.978
    31   1 H    0.999 --     8 C    0.978
    32   1 H    0.999 --     9 C    0.977
    33   1 H    0.999 --     9 C    0.977
    34   1 H    0.999 --    10 C    0.978
    35   1 H    0.999 --    10 C    0.978
    36   1 H    0.999 --    11 C    0.977
    37   1 H    0.999 --    11 C    0.977
    38   1 H    0.999 --    12 C    0.979
    39   1 H    0.999 --    12 C    0.979
    40   1 H    0.999 --    13 C    0.988
    41   1 H    0.999 --    13 C    0.988
    42   1 H    0.999 --    13 C    0.988
 ---------------------------------------------------------------------------

molecular dipole:
                 x           y           z       tot (Debye)
 q only:        1.266      -1.606       0.059
   full:        1.076      -1.599       0.026       4.899

           -------------------------------------------------
          | TOTAL ENERGY              -47.465886061489 Eh   |
          | GRADIENT NORM               0.000521332829 Eh/α |
          | HOMO-LUMO GAP               9.158898335141 eV   |
           -------------------------------------------------

 * finished run on 2023/01/23 at 20:22:19.465
