   * xtb version 6.5.1 (fef0646) compiled by 'conda@b96dff2e9fd6' on 2023-01-04
          program call               : xtb init.xyz --opt -c 0 -u 0 -P 16 --alpb water

   ID    Z sym.   atoms
    1    7 N      1
    2    6 C      2-13
    3   17 Cl     14
    4    1 H      15-42

      * Solvation model:               ALPB
        Solvent                        water
        Solvent mass                       1.8000E+01 g/mol
          :  Hamiltonian                  GFN2-xTB          :
 * total energy  :   -47.4981698 Eh     change       -0.1475151E-08 Eh
 * total energy  :   -47.5024596 Eh     change       -0.4289776E-02 Eh
 * total energy  :   -47.5038426 Eh     change       -0.1383030E-02 Eh
 * total energy  :   -47.5046309 Eh     change       -0.7882514E-03 Eh
 * total energy  :   -47.5053988 Eh     change       -0.7679073E-03 Eh
 * total energy  :   -47.5064982 Eh     change       -0.1099424E-02 Eh
 * total energy  :   -47.5076188 Eh     change       -0.1120607E-02 Eh
 * total energy  :   -47.5081999 Eh     change       -0.5810662E-03 Eh
 * total energy  :   -47.5083504 Eh     change       -0.1505168E-03 Eh
 * total energy  :   -47.5084312 Eh     change       -0.8074664E-04 Eh
 * total energy  :   -47.5084571 Eh     change       -0.2594413E-04 Eh
 * total energy  :   -47.5084790 Eh     change       -0.2190108E-04 Eh
 * total energy  :   -47.5085006 Eh     change       -0.2161079E-04 Eh
 * total energy  :   -47.5085078 Eh     change       -0.7215910E-05 Eh
 * total energy  :   -47.5085171 Eh     change       -0.9319163E-05 Eh
 * total energy  :   -47.5085206 Eh     change       -0.3451667E-05 Eh
   *** GEOMETRY OPTIMIZATION CONVERGED AFTER 16 ITERATIONS ***

 final structure:
================
42
 xtb: 6.5.1 (fef0646)
N            2.87208520243388        2.92683591119638        0.68377485061010
C            4.33221561244902        2.83528393547873        0.89635956625730
C            4.68161500913048        2.92396865184302        2.37611076203477
C            4.26445837389898        1.69597615901192        3.18732513395525
C            4.96537613492440        0.39422663870936        2.78854377081417
C            6.49442923518644        0.43264330859202        2.82279138704466
C            7.05884414326132        0.71117330826220        4.21416076037481
C            8.58488563972355        0.65526694929045        4.23293820840328
C            9.14813599036788        0.90624846800973        5.62983874839001
C           10.67473254681078        0.88277327949625        5.64910571692652
C           11.23472029123636        1.11911524819846        7.04976958879295
C           12.76166992007479        1.12036339326606        7.06737936185590
C           13.31374950690770        1.35262943988011        8.46892092918138
Cl           0.97817512899298        0.72353655773066        1.65915212434190
H            2.64188954523753        2.93537333687355       -0.31258464173810
H            2.49783638403567        3.76922854766491        1.12745255607642
H            2.35240248597531        2.11478389509533        1.09651069664940
H            4.81188872196301        3.65762809727838        0.36396357349382
H            4.68763102413100        1.89273869209253        0.48467528723719
H            4.19692982070837        3.80049379610594        2.80846087925094
H            5.75683447027313        3.06777250991754        2.47210197930239
H            3.19001661689836        1.52948691040040        3.08962155673759
H            4.46122108447936        1.89506881756564        4.24180478909638
H            4.63898091901826        0.09792521017395        1.78994569733155
H            4.61882721789572       -0.38925410523452        3.46796828415036
H            6.86828810252026        1.18165873674388        2.12389810328080
H            6.86535174150709       -0.53828216203892        2.48440547903454
H            6.66189624757361       -0.02616525594831        4.91663031692564
H            6.73896118799986        1.69681791719036        4.55507922863380
H            8.98293938613431        1.40425153857808        3.54457256913361
H            8.91714931458345       -0.32466598960707        3.88162303850223
H            8.76701030185242        0.14421156888764        6.31413676866477
H            8.79908458311667        1.87629561710663        5.99146421571938
H           11.05585198174508        1.65277296036846        4.97425898307373
H           11.02612286418513       -0.08326993167102        5.27857925641879
H           10.86739623024475        0.33948316130461        7.72155874194742
H           10.87012651030938        2.07739654162696        7.42731276620125
H           13.12812219188862        1.90268165744873        6.39898428451222
H           13.12675426767931        0.16342734556043        6.68743922172814
H           12.97278438144008        2.30919014517604        8.85845511628951
H           14.40081720182908        1.35361410588406        8.45689057720727
H           12.97794247940187        0.56937508648952        9.14485976615949

          :  Hamiltonian                  GFN2-xTB          :
         :: total energy             -47.508520597773 Eh    ::
         :: gradient norm              0.000528013344 Eh/a0 ::
         :: HOMO-LUMO gap             10.194147064272 eV    ::
         :: SCC energy               -48.133079153396 Eh    ::
         :: -> dispersion             -0.029201217174 Eh    ::
         :: -> Gsolv                  -0.073524969222 Eh    ::
         :: repulsion energy           0.624672552518 Eh    ::

    * Orbital Energies and Occupations

         #    Occupation            Energy/Eh            Energy/eV
      -------------------------------------------------------------
         1        2.0000           -1.0051979             -27.3528
       ...           ...                  ...                  ...
        32        2.0000           -0.4396191             -11.9626
        33        2.0000           -0.4335570             -11.7977
        34        2.0000           -0.4279594             -11.6454
        35        2.0000           -0.4260968             -11.5947
        36        2.0000           -0.4225465             -11.4981
        37        2.0000           -0.4185192             -11.3885
        38        2.0000           -0.4149496             -11.2914
        39        2.0000           -0.4126079             -11.2276
        40        2.0000           -0.4110725             -11.1859
        41        2.0000           -0.4055442             -11.0354
        42        2.0000           -0.4019839             -10.9385
        43        2.0000           -0.3995554             -10.8725
        44        2.0000           -0.3974710             -10.8157 (HOMO)
        45                         -0.0228430              -0.6216 (LUMO)
        46                          0.0438435               1.1930
        47                          0.0819635               2.2303
        48                          0.0876696               2.3856
        49                          0.0989040               2.6913
        50                          0.1019166               2.7733
        51                          0.1043099               2.8384
        52                          0.1082433               2.9454
        53                          0.1139041               3.0995
        54                          0.1173623               3.1936
        55                          0.1187327               3.2309
       ...                                ...                  ...
        89                          0.3281449               8.9293
      -------------------------------------------------------------
                  HL-Gap            0.3746280 Eh           10.1941 eV

     #   Z          covCN         q      C6AA      α(0)
     1   7 N        3.483    -0.164    24.540     7.358
     2   6 C        3.732    -0.027    21.155     6.565
     3   6 C        3.802    -0.079    22.014     6.680
     4   6 C        3.800    -0.069    21.814     6.650
     5   6 C        3.800    -0.058    21.627     6.621
     6   6 C        3.801    -0.064    21.732     6.637
     7   6 C        3.802    -0.061    21.680     6.629
     8   6 C        3.803    -0.063    21.701     6.632
     9   6 C        3.803    -0.062    21.681     6.629
    10   6 C        3.803    -0.062    21.693     6.631
    11   6 C        3.803    -0.063    21.700     6.632
    12   6 C        3.801    -0.058    21.615     6.619
    13   6 C        3.752    -0.111    22.682     6.792
    14  17 Cl       0.034    -0.951   125.016    17.017
    15   1 H        0.859     0.300     0.714     1.323
    16   1 H        0.859     0.294     0.730     1.339
    17   1 H        0.891     0.290     0.741     1.347
    18   1 H        0.924     0.105     1.737     2.061
    19   1 H        0.925     0.098     1.803     2.100
    20   1 H        0.924     0.062     2.171     2.304
    21   1 H        0.925     0.070     2.081     2.256
    22   1 H        0.924     0.046     2.365     2.405
    23   1 H        0.924     0.033     2.543     2.494
    24   1 H        0.924     0.035     2.523     2.484
    25   1 H        0.924     0.015     2.804     2.619
    26   1 H        0.924     0.045     2.388     2.417
    27   1 H        0.924     0.025     2.657     2.549
    28   1 H        0.924     0.023     2.691     2.565
    29   1 H        0.924     0.038     2.476     2.461
    30   1 H        0.924     0.035     2.519     2.482
    31   1 H        0.924     0.027     2.634     2.538
    32   1 H        0.924     0.027     2.635     2.539
    33   1 H        0.924     0.032     2.555     2.499
    34   1 H        0.924     0.032     2.555     2.500
    35   1 H        0.924     0.028     2.610     2.526
    36   1 H        0.924     0.029     2.600     2.522
    37   1 H        0.924     0.032     2.561     2.503
    38   1 H        0.924     0.031     2.566     2.505
    39   1 H        0.924     0.029     2.594     2.519
    40   1 H        0.925     0.037     2.491     2.468
    41   1 H        0.925     0.037     2.489     2.467
    42   1 H        0.925     0.035     2.513     2.479

Wiberg/Mayer (AO) data.
largest (>0.10) Wiberg bond orders for each atom

     #   Z sym  total        # sym  WBO       # sym  WBO       # sym  WBO
 ---------------------------------------------------------------------------
     1   7 N    3.648 --     2 C    0.964    16 H    0.897    15 H    0.896
                            17 H    0.840
     2   6 C    3.929 --     3 C    1.012    18 H    0.967    19 H    0.965
                             1 N    0.964
     3   6 C    3.992 --     2 C    1.012     4 C    1.008    20 H    0.971
                            21 H    0.967
     4   6 C    3.995 --     3 C    1.008     5 C    1.006    23 H    0.975
                            22 H    0.971
     5   6 C    3.995 --     6 C    1.007     4 C    1.006    25 H    0.977
                            24 H    0.974
     6   6 C    3.996 --     7 C    1.008     5 C    1.007    27 H    0.977
                            26 H    0.974
     7   6 C    3.997 --     6 C    1.008     8 C    1.007    28 H    0.978
                            29 H    0.975
     8   6 C    3.997 --     9 C    1.007     7 C    1.007    31 H    0.978
                            30 H    0.977
     9   6 C    3.997 --    10 C    1.007     8 C    1.007    32 H    0.978
                            33 H    0.977
    10   6 C    3.997 --    11 C    1.007     9 C    1.007    35 H    0.978
                            34 H    0.977
    11   6 C    3.997 --    12 C    1.008    10 C    1.007    36 H    0.978
                            37 H    0.977
    12   6 C    3.997 --    13 C    1.019    11 C    1.008    39 H    0.979
                            38 H    0.978
    13   6 C    3.996 --    12 C    1.019    42 H    0.988    40 H    0.988
                            41 H    0.987
    14  17 Cl   0.096
    15   1 H    0.910 --     1 N    0.896
    16   1 H    0.913 --     1 N    0.897
    17   1 H    0.916 --     1 N    0.840
    18   1 H    0.989 --     2 C    0.967
    19   1 H    0.990 --     2 C    0.965
    20   1 H    0.996 --     3 C    0.971
    21   1 H    0.995 --     3 C    0.967
    22   1 H    0.998 --     4 C    0.971
    23   1 H    0.999 --     4 C    0.975
    24   1 H    0.998 --     5 C    0.974
    25   1 H    1.000 --     5 C    0.977
    26   1 H    0.998 --     6 C    0.974
    27   1 H    0.999 --     6 C    0.977
    28   1 H    0.999 --     7 C    0.978
    29   1 H    0.999 --     7 C    0.975
    30   1 H    0.999 --     8 C    0.977
    31   1 H    0.999 --     8 C    0.978
    32   1 H    0.999 --     9 C    0.978
    33   1 H    0.999 --     9 C    0.977
    34   1 H    0.999 --    10 C    0.977
    35   1 H    0.999 --    10 C    0.978
    36   1 H    0.999 --    11 C    0.978
    37   1 H    0.999 --    11 C    0.977
    38   1 H    0.999 --    12 C    0.978
    39   1 H    0.999 --    12 C    0.979
    40   1 H    0.999 --    13 C    0.988
    41   1 H    0.998 --    13 C    0.987
    42   1 H    0.999 --    13 C    0.988
 ---------------------------------------------------------------------------

molecular dipole:
                 x           y           z       tot (Debye)
 q only:        3.618       4.133      -1.750
   full:        2.990       3.535      -1.535      12.398

           -------------------------------------------------
          | TOTAL ENERGY              -47.508520597773 Eh   |
          | GRADIENT NORM               0.000528013344 Eh/α |
          | HOMO-LUMO GAP              10.194147064272 eV   |
           -------------------------------------------------

 * finished run on 2023/01/24 at 16:34:08.480
