   * xtb version 6.5.1 (fef0646) compiled by 'conda@b96dff2e9fd6' on 2023-01-04
          program call               : xtb init.xyz --opt -c 1 -u 0 -P 16

   ID    Z sym.   atoms
    1    7 N      1
    2    6 C      2-19
    3   16 S      20-23
    4    1 H      24-39

          :  Hamiltonian                  GFN2-xTB          :
 * total energy  :   -62.1429974 Eh     change       -0.4956391E-09 Eh
 * total energy  :   -62.1494564 Eh     change       -0.6459037E-02 Eh
 * total energy  :   -62.1519326 Eh     change       -0.2476145E-02 Eh
 * total energy  :   -62.1529785 Eh     change       -0.1045975E-02 Eh
 * total energy  :   -62.1541489 Eh     change       -0.1170410E-02 Eh
 * total energy  :   -62.1551130 Eh     change       -0.9640105E-03 Eh
 * total energy  :   -62.1563293 Eh     change       -0.1216373E-02 Eh
 * total energy  :   -62.1574688 Eh     change       -0.1139443E-02 Eh
 * total energy  :   -62.1582770 Eh     change       -0.8082186E-03 Eh
 * total energy  :   -62.1588335 Eh     change       -0.5565377E-03 Eh
 * total energy  :   -62.1607793 Eh     change       -0.3609468E-04 Eh
 * total energy  :   -62.1608273 Eh     change       -0.4794020E-04 Eh
 * total energy  :   -62.1608562 Eh     change       -0.2891362E-04 Eh
 * total energy  :   -62.1609139 Eh     change       -0.5772973E-04 Eh
 * total energy  :   -62.1609262 Eh     change       -0.1228792E-04 Eh
 * total energy  :   -62.1609470 Eh     change       -0.2078558E-04 Eh
 * total energy  :   -62.1609556 Eh     change       -0.8661077E-05 Eh
 * total energy  :   -62.1609605 Eh     change       -0.4871875E-05 Eh
 * total energy  :   -62.1609647 Eh     change       -0.4206853E-05 Eh
   *** GEOMETRY OPTIMIZATION CONVERGED AFTER 37 ITERATIONS ***

 final structure:
================
39
 xtb: 6.5.1 (fef0646)
N            3.35724574700006       -0.95750549250498        0.03957671659437
C            2.67936055378481        0.36045980421503        0.18522258126111
C            3.63219284305819        1.33304490361374        0.88834752341284
C            4.85899919510014        1.56268021377059        0.06994695981357
C            5.16441652166584        2.60603793361134       -0.74577868519479
C            6.38005762043497        2.44991209914297       -1.43695366857214
C            7.02730379236948        1.27058878091244       -1.17395561498045
C            8.25482260710622        0.78143915809608       -1.68442708957424
C            8.90920162397266       -0.39302681249251       -1.37428586526591
C           10.10903388120500       -0.55534978716606       -2.06009921975792
C           10.40006717698140        0.49282827120668       -2.91415614593293
C           11.53437117522532        0.64280058858391       -3.75382860064113
C           12.59663042656620       -0.22620526743193       -3.90853337106970
C           13.55048716597372        0.22473275277727       -4.81803269722493
C           13.24261134416612        1.44662847238832       -5.37898961004440
C           13.99413818737402        2.18576137112951       -6.33441551868264
C           13.70377638295223        3.41175244421587       -6.88445902432181
C           14.67574252413398        3.84586493565417       -7.80002407884697
C           15.69546818724383        2.95559826232821       -7.94519032861681
S           15.49496134346389        1.56396169149460       -6.96576477466063
S           11.73546833837872        2.04901590901670       -4.76509277280057
S            9.15617384917256        1.70233133560925       -2.86022181098073
S            6.12348047919378        0.33570670533720       -0.00129862550323
H            2.87247257261311       -1.57783959973691       -0.61541381944495
H            3.43500873194653       -1.42328147228383        0.95047717854585
H            4.34308435690803       -0.76157913841437       -0.29198774506704
H            1.75639628896983        0.23758006223949        0.75189813550400
H            2.44034947909918        0.73669167642293       -0.81037299144924
H            3.89438993773927        0.94319960504784        1.87416953310903
H            3.11694368400385        2.28279025783940        1.02995969581792
H            4.53923421125354        3.47464502656319       -0.84768747046778
H            6.78422310784044        3.18095361440381       -2.11246617675780
H            8.52577444899458       -1.10555597687842       -0.66334977398916
H           10.75128088226207       -1.40744958657827       -1.93937083567755
H           12.67681263230424       -1.15701520812797       -3.37755601374952
H           14.44654352668659       -0.31418541298171       -5.06913829259291
H           12.82081326729863        3.97081263603737       -6.62993939070453
H           14.62297387330894        4.77947182426572       -8.32996086124806
H           16.56095803224955        3.03368341867307       -8.57272745023657

          :  Hamiltonian                  GFN2-xTB          :
         :: total energy             -62.160964715387 Eh    ::
         :: gradient norm              0.000857405504 Eh/a0 ::
         :: HOMO-LUMO gap              1.392616165034 eV    ::
         :: SCC energy               -63.091567970437 Eh    ::
         :: -> dispersion             -0.048423079777 Eh    ::
         :: repulsion energy           0.931286370327 Eh    ::

    * Orbital Energies and Occupations

         #    Occupation            Energy/Eh            Energy/eV
      -------------------------------------------------------------
         1        2.0000           -0.8705601             -23.6891
       ...           ...                  ...                  ...
        46        2.0000           -0.5298913             -14.4191
        47        2.0000           -0.5267032             -14.3323
        48        2.0000           -0.5234261             -14.2432
        49        2.0000           -0.5218145             -14.1993
        50        2.0000           -0.5150267             -14.0146
        51        2.0000           -0.5147825             -14.0079
        52        2.0000           -0.5089075             -13.8481
        53        2.0000           -0.4956862             -13.4883
        54        2.0000           -0.4828216             -13.1382
        55        2.0000           -0.4715892             -12.8326
        56        2.0000           -0.4620581             -12.5732
        57        2.0000           -0.4591672             -12.4946
        58        2.0000           -0.4302794             -11.7085 (HOMO)
        59                         -0.3791017             -10.3159 (LUMO)
        60                         -0.3451287              -9.3914
        61                         -0.3351664              -9.1203
        62                         -0.3143278              -8.5533
        63                         -0.3000710              -8.1653
        64                         -0.2881482              -7.8409
        65                         -0.2705018              -7.3607
        66                         -0.2678810              -7.2894
        67                         -0.2604286              -7.0866
        68                         -0.2539378              -6.9100
        69                         -0.2490936              -6.7782
       ...                                ...                  ...
       128                          0.6384125              17.3721
      -------------------------------------------------------------
                  HL-Gap            0.0511777 Eh            1.3926 eV

     #   Z          covCN         q      C6AA      α(0)
     1   7 N        3.482    -0.149    24.208     7.308
     2   6 C        3.733    -0.030    21.204     6.572
     3   6 C        3.822    -0.086    22.119     6.693
     4   6 C        2.983    -0.009    28.226     8.715
     5   6 C        3.090    -0.042    28.942     8.818
     6   6 C        3.105    -0.053    29.180     8.851
     7   6 C        3.017     0.034    27.207     8.556
     8   6 C        3.025     0.006    27.860     8.658
     9   6 C        3.091    -0.042    28.937     8.817
    10   6 C        3.095    -0.052    29.160     8.850
    11   6 C        3.021     0.032    27.270     8.566
    12   6 C        3.024     0.014    27.673     8.629
    13   6 C        3.093    -0.041    28.897     8.811
    14   6 C        3.099    -0.048    29.056     8.834
    15   6 C        3.022     0.030    27.297     8.570
    16   6 C        3.026     0.015    27.652     8.626
    17   6 C        3.106    -0.044    28.949     8.816
    18   6 C        3.108    -0.039    28.814     8.795
    19   6 C        2.942    -0.014    28.373     8.736
    20  16 S        2.323     0.003   140.952    19.982
    21  16 S        2.366    -0.016   141.712    20.036
    22  16 S        2.365    -0.013   141.595    20.027
    23  16 S        2.361    -0.114   145.846    20.326
    24   1 H        0.859     0.261     0.840     1.436
    25   1 H        0.859     0.266     0.825     1.423
    26   1 H        0.881     0.285     0.758     1.363
    27   1 H        0.925     0.102     1.764     2.077
    28   1 H        0.924     0.105     1.737     2.061
    29   1 H        0.924     0.076     2.025     2.225
    30   1 H        0.925     0.097     1.817     2.108
    31   1 H        0.926     0.054     2.266     2.354
    32   1 H        0.926     0.060     2.203     2.321
    33   1 H        0.926     0.040     2.442     2.444
    34   1 H        0.926     0.050     2.325     2.384
    35   1 H        0.926     0.048     2.342     2.393
    36   1 H        0.926     0.056     2.242     2.341
    37   1 H        0.926     0.048     2.340     2.392
    38   1 H        0.926     0.051     2.311     2.377
    39   1 H        0.926     0.058     2.223     2.331

Wiberg/Mayer (AO) data.
largest (>0.10) Wiberg bond orders for each atom

     #   Z sym  total        # sym  WBO       # sym  WBO       # sym  WBO
 ---------------------------------------------------------------------------
     1   7 N    3.659 --     2 C    0.940    24 H    0.917    25 H    0.914
                            26 H    0.828
     2   6 C    3.900 --     3 C    0.991    28 H    0.968    27 H    0.968
                             1 N    0.940
     3   6 C    3.982 --     4 C    1.022     2 C    0.991    29 H    0.964
                            30 H    0.957
     4   6 C    3.892 --     5 C    1.594    23 S    1.088     3 C    1.022
     5   6 C    3.987 --     4 C    1.594     6 C    1.290    31 H    0.960
     6   6 C    3.959 --     7 C    1.507     5 C    1.290    32 H    0.957
     7   6 C    3.941 --     6 C    1.507     8 C    1.191    23 S    1.069
     8   6 C    3.923 --     9 C    1.441     7 C    1.191    22 S    1.110
     9   6 C    3.984 --     8 C    1.441    10 C    1.377    33 H    0.961
    10   6 C    3.966 --    11 C    1.430     9 C    1.377    34 H    0.962
    11   6 C    3.940 --    10 C    1.430    12 C    1.193    22 S    1.148
    12   6 C    3.934 --    13 C    1.438    11 C    1.193    21 S    1.123
    13   6 C    3.970 --    12 C    1.438    14 C    1.370    35 H    0.962
    14   6 C    3.979 --    15 C    1.450    13 C    1.370    36 H    0.960
    15   6 C    3.931 --    14 C    1.450    16 C    1.175    21 S    1.142
    16   6 C    3.950 --    17 C    1.486    15 C    1.175    20 S    1.125
    17   6 C    3.967 --    16 C    1.486    18 C    1.316    37 H    0.961
    18   6 C    3.984 --    19 C    1.586    17 C    1.316    38 H    0.964
    19   6 C    3.923 --    18 C    1.586    20 S    1.214    39 H    0.969
    20  16 S    2.625 --    19 C    1.214    16 C    1.125
    21  16 S    2.591 --    15 C    1.142    12 C    1.123
    22  16 S    2.581 --    11 C    1.148     8 C    1.110
    23  16 S    2.540 --     4 C    1.088     7 C    1.069
    24   1 H    0.931 --     1 N    0.917
    25   1 H    0.929 --     1 N    0.914
    26   1 H    0.918 --     1 N    0.828
    27   1 H    0.988 --     2 C    0.968
    28   1 H    0.989 --     2 C    0.968
    29   1 H    0.993 --     3 C    0.964
    30   1 H    0.990 --     3 C    0.957
    31   1 H    0.997 --     5 C    0.960
    32   1 H    0.996 --     6 C    0.957
    33   1 H    0.998 --     9 C    0.961
    34   1 H    0.997 --    10 C    0.962
    35   1 H    0.997 --    13 C    0.962
    36   1 H    0.996 --    14 C    0.960
    37   1 H    0.998 --    17 C    0.961
    38   1 H    0.997 --    18 C    0.964
    39   1 H    0.996 --    19 C    0.969
 ---------------------------------------------------------------------------

molecular dipole:
                 x           y           z       tot (Debye)
 q only:        8.863      -0.544      -1.526
   full:        9.355      -0.497      -1.674      24.190

           -------------------------------------------------
          | TOTAL ENERGY              -62.160964715387 Eh   |
          | GRADIENT NORM               0.000857405504 Eh/α |
          | HOMO-LUMO GAP               1.392616165034 eV   |
           -------------------------------------------------

 * finished run on 2023/01/23 at 14:04:10.524
