   * xtb version 6.5.1 (fef0646) compiled by 'conda@b96dff2e9fd6' on 2023-01-04
          program call               : xtb init.xyz --opt -c 0 -u 0 -P 16 --alpb water

   ID    Z sym.   atoms
    1    7 N      1, 24, 26
    2    6 C      2-21, 23, 27
    3   16 S      22, 25, 28, 29
    4   17 Cl     30
    5    1 H      31-50

      * Solvation model:               ALPB
        Solvent                        water
        Solvent mass                       1.8000E+01 g/mol
          :  Hamiltonian                  GFN2-xTB          :
 * total energy  :   -83.6269037 Eh     change       -0.2147061E-08 Eh
 * total energy  :   -83.6442277 Eh     change       -0.1732402E-01 Eh
 * total energy  :   -83.6503565 Eh     change       -0.6128790E-02 Eh
 * total energy  :   -83.6523620 Eh     change       -0.2005485E-02 Eh
 * total energy  :   -83.6537151 Eh     change       -0.1353049E-02 Eh
 * total energy  :   -83.6545630 Eh     change       -0.8479707E-03 Eh
 * total energy  :   -83.6553714 Eh     change       -0.8083563E-03 Eh
 * total energy  :   -83.6560557 Eh     change       -0.6843565E-03 Eh
 * total energy  :   -83.6565086 Eh     change       -0.4528245E-03 Eh
 * total energy  :   -83.6568078 Eh     change       -0.2992304E-03 Eh
 * total energy  :   -83.6614953 Eh     change       -0.2718177E-04 Eh
 * total energy  :   -83.6615245 Eh     change       -0.2920482E-04 Eh
 * total energy  :   -83.6615547 Eh     change       -0.3018513E-04 Eh
 * total energy  :   -83.6615725 Eh     change       -0.1775571E-04 Eh
 * total energy  :   -83.6615800 Eh     change       -0.7510392E-05 Eh
 * total energy  :   -83.6615899 Eh     change       -0.9937842E-05 Eh
 * total energy  :   -83.6615954 Eh     change       -0.5429746E-05 Eh
 * total energy  :   -83.6616042 Eh     change       -0.8863631E-05 Eh
 * total energy  :   -83.6616071 Eh     change       -0.2908492E-05 Eh
   *** GEOMETRY OPTIMIZATION CONVERGED AFTER 97 ITERATIONS ***

 final structure:
================
50
 xtb: 6.5.1 (fef0646)
N            3.16230556894191       -0.71625504885635        0.22731623370960
C            2.78174739747869       -1.00471994843721        1.62105502338169
C            3.88210097750157       -1.79314979745914        2.34099754878255
C            5.09045374648330       -0.95673201859859        2.58928592840552
C            5.44527520931825       -0.29621002702355        3.72754435198975
C            6.63153460598747        0.44770421903439        3.59858048988106
C            7.19666013532347        0.36380799681547        2.35164992571934
C            8.37916625422146        0.98829566270699        1.86420254748202
C            8.95491930640601        0.86573537266736        0.62384519783959
C           10.12140384977851        1.62900223720603        0.45371476665950
C           10.90010434693832        1.57527832449583       -0.81947604165569
C           10.44581857193646        2.35442877837028        1.58802877758100
C           11.52674500784181        3.26906688598691        1.83701766923063
C           12.25742045447382        3.91217805592468        0.84965946256132
C           13.31125546928319        4.78642549929079        1.12481989226759
C           13.71410289883280        5.11088304481439        2.40896517648595
C           14.80471053296074        6.00620003215758        2.70842545093367
C           15.30027481620691        7.07069448837841        1.98709121431732
C           14.74679271242992        7.60453361080783        0.70668561723358
C           16.40550832793886        7.67709367149060        2.62958225438500
C           16.73852887574770        7.08697231567936        3.80528308353282
S           15.69641477846228        5.77824710234285        4.19066908222000
C           12.98745280782995        4.48402235817353        3.45344104521719
N           13.17452470426345        4.64083715478175        4.76481127327824
S           12.10511209137231        3.74243890160182        5.56060976604398
N           11.34684051194750        3.11270814992411        4.28698346420148
C           11.90290574638423        3.58413118406848        3.17100593339113
S            9.30946423872951        2.05227635986317        2.87829739074898
S            6.24969919978393       -0.66420700335822        1.32347268849078
Cl           1.17738216112677        1.30390796378640       -0.90077384373367
H            2.47049894077427       -0.05507730681881       -0.20822922020437
H            3.19387269099910       -1.56971031149267       -0.33480428142328
H            4.08278141290246       -0.26413339680609        0.19383572023487
H            1.85521464134268       -1.57599096157073        1.61942450372862
H            2.59885665813001       -0.05960842926898        2.13167691291298
H            4.15309293929593       -2.66596480207879        1.74746755118862
H            3.49428315422775       -2.13406043766082        3.29998054734349
H            4.87571373785356       -0.33972061127173        4.63797205747493
H            7.07368433449428        1.03158059957383        4.38650473288734
H            8.54802975696967        0.23697953456510       -0.14920317925052
H           10.63243062508348        0.67601920261467       -1.36811352599648
H           11.96957552014349        1.56314373555679       -0.62222940219328
H           10.66869728341827        2.43392547773435       -1.44930488381343
H           12.00095433139483        3.75518487192126       -0.18272418889934
H           13.84581984542211        5.20382699717324        0.28887618840903
H           13.66873236296547        7.46959534260361        0.66135685294872
H           15.19874185923903        7.10034846585804       -0.14739089367005
H           14.97481310498619        8.66460413341122        0.62771256302712
H           16.92602010434707        8.52435868748970        2.22078996392782
H           17.52820139009543        7.34523368183192        4.48133061074407

          :  Hamiltonian                  GFN2-xTB          :
         :: total energy             -83.661607129452 Eh    ::
         :: gradient norm              0.000359417015 Eh/a0 ::
         :: HOMO-LUMO gap              1.193413205340 eV    ::
         :: SCC energy               -84.817251068002 Eh    ::
         :: -> dispersion             -0.066966954744 Eh    ::
         :: -> Gsolv                  -0.079528373866 Eh    ::
         :: repulsion energy           1.156155668926 Eh    ::

    * Orbital Energies and Occupations

         #    Occupation            Energy/Eh            Energy/eV
      -------------------------------------------------------------
         1        2.0000           -1.0034984             -27.3066
       ...           ...                  ...                  ...
        65        2.0000           -0.4277630             -11.6400
        66        2.0000           -0.4189057             -11.3990
        67        2.0000           -0.4187174             -11.3939
        68        2.0000           -0.4175595             -11.3624
        69        2.0000           -0.4058461             -11.0436
        70        2.0000           -0.4010769             -10.9139
        71        2.0000           -0.3977886             -10.8244
        72        2.0000           -0.3976276             -10.8200
        73        2.0000           -0.3975346             -10.8175
        74        2.0000           -0.3924317             -10.6786
        75        2.0000           -0.3899684             -10.6116
        76        2.0000           -0.3806431             -10.3578
        77        2.0000           -0.3581597              -9.7460 (HOMO)
        78                         -0.3143026              -8.5526 (LUMO)
        79                         -0.2756377              -7.5005
        80                         -0.2539337              -6.9099
        81                         -0.2289408              -6.2298
        82                         -0.2271784              -6.1818
        83                         -0.2227628              -6.0617
        84                         -0.2117608              -5.7623
        85                         -0.2005233              -5.4565
        86                         -0.1988314              -5.4105
        87                         -0.1920233              -5.2252
        88                         -0.1743609              -4.7446
       ...                                ...                  ...
       165                          0.7156602              19.4741
      -------------------------------------------------------------
                  HL-Gap            0.0438571 Eh            1.1934 eV

     #   Z          covCN         q      C6AA      α(0)
     1   7 N        3.483    -0.164    24.547     7.358
     2   6 C        3.733    -0.025    21.116     6.559
     3   6 C        3.824    -0.092    22.240     6.711
     4   6 C        2.985     0.027    27.382     8.584
     5   6 C        3.109    -0.059    29.314     8.871
     6   6 C        3.114    -0.053    29.140     8.843
     7   6 C        3.021     0.010    27.768     8.644
     8   6 C        3.019     0.020    27.547     8.609
     9   6 C        3.104    -0.067    29.521     8.903
    10   6 C        3.123     0.001    27.813     8.636
    11   6 C        3.755    -0.119    22.831     6.813
    12   6 C        2.994     0.008    27.832     8.654
    13   6 C        3.001    -0.010    28.256     8.720
    14   6 C        2.923    -0.050    29.242     8.868
    15   6 C        2.924    -0.048    29.183     8.859
    16   6 C        2.996    -0.010    28.254     8.719
    17   6 C        2.996     0.007    27.854     8.657
    18   6 C        3.136    -0.002    27.838     8.636
    19   6 C        3.755    -0.118    22.812     6.810
    20   6 C        3.117    -0.059    29.294     8.865
    21   6 C        2.932    -0.025    28.639     8.776
    22  16 S        2.330    -0.054   143.281    20.146
    23   6 C        3.345     0.068    23.949     7.725
    24   7 N        1.861    -0.298    28.584     7.925
    25  16 S        2.656     0.351   127.558    19.009
    26   7 N        1.888    -0.296    28.532     7.919
    27   6 C        3.344     0.069    23.965     7.732
    28  16 S        2.376    -0.075   144.193    20.210
    29  16 S        2.365    -0.033   142.413    20.085
    30  17 Cl       0.053    -0.947   124.878    17.007
    31   1 H        0.909     0.298     0.715     1.323
    32   1 H        0.859     0.304     0.701     1.311
    33   1 H        0.859     0.287     0.752     1.359
    34   1 H        0.925     0.114     1.664     2.017
    35   1 H        0.925     0.099     1.793     2.094
    36   1 H        0.925     0.102     1.768     2.079
    37   1 H        0.925     0.095     1.834     2.118
    38   1 H        0.926     0.053     2.281     2.362
    39   1 H        0.926     0.034     2.531     2.488
    40   1 H        0.926     0.058     2.221     2.330
    41   1 H        0.925     0.065     2.141     2.288
    42   1 H        0.925     0.055     2.262     2.352
    43   1 H        0.925     0.061     2.185     2.312
    44   1 H        0.926     0.065     2.146     2.291
    45   1 H        0.926     0.063     2.166     2.302
    46   1 H        0.925     0.052     2.294     2.369
    47   1 H        0.925     0.062     2.172     2.305
    48   1 H        0.925     0.061     2.186     2.312
    49   1 H        0.926     0.053     2.285     2.364
    50   1 H        0.926     0.062     2.170     2.304

Wiberg/Mayer (AO) data.
largest (>0.10) Wiberg bond orders for each atom

     #   Z sym  total        # sym  WBO       # sym  WBO       # sym  WBO
 ---------------------------------------------------------------------------
     1   7 N    3.647 --     2 C    0.974    32 H    0.893    33 H    0.887
                            31 H    0.829
     2   6 C    3.929 --     3 C    0.988     1 N    0.974    35 H    0.968
                            34 H    0.963
     3   6 C    3.984 --     4 C    1.027     2 C    0.988    37 H    0.959
                            36 H    0.958
     4   6 C    3.923 --     5 C    1.572    29 S    1.151     3 C    1.027
     5   6 C    3.984 --     4 C    1.572     6 C    1.304    38 H    0.962
     6   6 C    3.970 --     7 C    1.505     5 C    1.304    39 H    0.961
     7   6 C    3.951 --     6 C    1.505     8 C    1.165    29 S    1.113
     8   6 C    3.925 --     9 C    1.474     7 C    1.165    28 S    1.129
     9   6 C    3.975 --     8 C    1.474    10 C    1.316    40 H    0.960
    10   6 C    3.949 --    12 C    1.443     9 C    1.316    11 C    1.027
    11   6 C    3.992 --    10 C    1.027    41 H    0.979    42 H    0.973
                            43 H    0.962
    12   6 C    3.928 --    10 C    1.443    13 C    1.148    28 S    1.117
    13   6 C    3.951 --    14 C    1.426    27 C    1.188    12 C    1.148
    14   6 C    3.974 --    13 C    1.426    15 C    1.365    44 H    0.961
    15   6 C    3.987 --    16 C    1.436    14 C    1.365    45 H    0.963
    16   6 C    3.941 --    15 C    1.436    23 C    1.195    17 C    1.124
    17   6 C    3.942 --    18 C    1.489    16 C    1.124    22 S    1.122
    18   6 C    3.951 --    17 C    1.489    20 C    1.270    19 C    1.027
    19   6 C    3.993 --    18 C    1.027    48 H    0.978    46 H    0.976
                            47 H    0.962
    20   6 C    3.982 --    21 C    1.607    18 C    1.270    49 H    0.963
    21   6 C    3.924 --    20 C    1.607    22 S    1.202    50 H    0.967
    22  16 S    2.623 --    21 C    1.202    17 C    1.122
    23   6 C    3.970 --    24 N    1.385    16 C    1.195    27 C    1.171
    24   7 N    3.079 --    25 S    1.418    23 C    1.385    26 N    0.160
    25  16 S    3.163 --    24 N    1.418    26 N    1.408    27 C    0.101
    26   7 N    3.093 --    25 S    1.408    27 C    1.390    24 N    0.160
    27   6 C    3.968 --    26 N    1.390    13 C    1.188    23 C    1.171
                            25 S    0.101
    28  16 S    2.604 --     8 C    1.129    12 C    1.117
    29  16 S    2.582 --     4 C    1.151     7 C    1.113
    30  17 Cl   0.102
    31   1 H    0.911 --     1 N    0.829
    32   1 H    0.907 --     1 N    0.893
    33   1 H    0.917 --     1 N    0.887
    34   1 H    0.986 --     2 C    0.963
    35   1 H    0.990 --     2 C    0.968
    36   1 H    0.988 --     3 C    0.958
    37   1 H    0.990 --     3 C    0.959
    38   1 H    0.997 --     5 C    0.962
    39   1 H    0.999 --     6 C    0.961
    40   1 H    0.996 --     9 C    0.960
    41   1 H    0.995 --    11 C    0.979
    42   1 H    0.996 --    11 C    0.973
    43   1 H    0.994 --    11 C    0.962
    44   1 H    0.994 --    14 C    0.961
    45   1 H    0.994 --    15 C    0.963
    46   1 H    0.997 --    19 C    0.976
    47   1 H    0.994 --    19 C    0.962
    48   1 H    0.996 --    19 C    0.978
    49   1 H    0.997 --    20 C    0.963
    50   1 H    0.995 --    21 C    0.967
 ---------------------------------------------------------------------------

molecular dipole:
                 x           y           z       tot (Debye)
 q only:        2.852      -4.026       1.020
   full:        3.026      -3.005       0.702      10.985

           -------------------------------------------------
          | TOTAL ENERGY              -83.661607129452 Eh   |
          | GRADIENT NORM               0.000359417015 Eh/α |
          | HOMO-LUMO GAP               1.193413205340 eV   |
           -------------------------------------------------

 * finished run on 2023/01/24 at 15:37:42.697
