   * xtb version 6.5.1 (fef0646) compiled by 'conda@b96dff2e9fd6' on 2023-01-04
          program call               : xtb init.xyz --opt -c 0 -u 0 -P 16

   ID    Z sym.   atoms
    1    7 N      1
    2    6 C      2-4
    3   17 Cl     5
    4    1 H      6-15

          :  Hamiltonian                  GFN2-xTB          :
 * total energy  :   -18.9654846 Eh     change       -0.4679528E-09 Eh
 * total energy  :   -18.9711290 Eh     change       -0.5644434E-02 Eh
 * total energy  :   -18.9770988 Eh     change       -0.5969848E-02 Eh
 * total energy  :   -18.9810473 Eh     change       -0.3948476E-02 Eh
 * total energy  :   -18.9836419 Eh     change       -0.2594620E-02 Eh
 * total energy  :   -18.9855144 Eh     change       -0.1872429E-02 Eh
 * total energy  :   -18.9864365 Eh     change       -0.9221746E-03 Eh
 * total energy  :   -18.9869610 Eh     change       -0.5244532E-03 Eh
 * total energy  :   -18.9870203 Eh     change       -0.5931870E-04 Eh
 * total energy  :   -18.9871609 Eh     change       -0.1405358E-03 Eh
 * total energy  :   -18.9875096 Eh     change       -0.9792360E-04 Eh
 * total energy  :   -18.9876524 Eh     change       -0.1427828E-03 Eh
 * total energy  :   -18.9876906 Eh     change       -0.3821006E-04 Eh
 * total energy  :   -18.9877238 Eh     change       -0.3318602E-04 Eh
 * total energy  :   -18.9877550 Eh     change       -0.3125310E-04 Eh
 * total energy  :   -18.9877826 Eh     change       -0.2754326E-04 Eh
 * total energy  :   -18.9878118 Eh     change       -0.2923735E-04 Eh
 * total energy  :   -18.9878281 Eh     change       -0.1626277E-04 Eh
 * total energy  :   -18.9878322 Eh     change       -0.4153074E-05 Eh
   *** GEOMETRY OPTIMIZATION CONVERGED AFTER 21 ITERATIONS ***

 final structure:
================
15
 xtb: 6.5.1 (fef0646)
N            1.17958032928554        0.34777929533870       -0.27620798461531
C            2.62206133483556        0.11088947954973       -0.23357419265416
C            3.16063594750607        0.39935555030370        1.16460297575727
C            4.64483336733343        0.07341079410446        1.26846195737928
Cl          -0.20575401627363       -1.41528393176935        1.61346016557324
H            0.80078600475371        0.15674805786798       -1.19727360107234
H            0.96546799830281        1.30823532807692       -0.02774391908928
H            0.45411673822340       -0.59000965109222        0.73697309497918
H            3.16211638534669        0.72393964984824       -0.96982495183862
H            2.78832150290916       -0.94032872650613       -0.48007817354129
H            2.59785193791569       -0.19620182164369        1.88363919687212
H            3.00033378828529        1.45391375440421        1.40139991918761
H            4.81775908576161       -0.98116477445227        1.06967496388441
H            5.01282872707194        0.29911914106083        2.26574592256126
H            5.21877086874269        0.65665785490860        0.55117462661681

          :  Hamiltonian                  GFN2-xTB          :
         :: total energy             -18.987832223877 Eh    ::
         :: gradient norm              0.000489196443 Eh/a0 ::
         :: HOMO-LUMO gap              9.173696560380 eV    ::
         :: SCC energy               -19.182936162271 Eh    ::
         :: -> dispersion             -0.007568069609 Eh    ::
         :: repulsion energy           0.195083875223 Eh    ::

    * Orbital Energies and Occupations

         #    Occupation            Energy/Eh            Energy/eV
      -------------------------------------------------------------
         1        2.0000           -1.0161634             -27.6512
       ...           ...                  ...                  ...
         5        2.0000           -0.5797275             -15.7752
         6        2.0000           -0.5516859             -15.0121
         7        2.0000           -0.5452975             -14.8383
         8        2.0000           -0.5278394             -14.3632
         9        2.0000           -0.5038948             -13.7117
        10        2.0000           -0.4898249             -13.3288
        11        2.0000           -0.4744711             -12.9110
        12        2.0000           -0.4669096             -12.7053
        13        2.0000           -0.4504371             -12.2570
        14        2.0000           -0.4412639             -12.0074
        15        2.0000           -0.3985233             -10.8444
        16        2.0000           -0.3932651             -10.7013
        17        2.0000           -0.3932325             -10.7004 (HOMO)
        18                         -0.0561053              -1.5267 (LUMO)
        19                          0.0145246               0.3952
        20                          0.0679557               1.8492
        21                          0.0683359               1.8595
        22                          0.0739377               2.0119
        23                          0.0741058               2.0165
        24                          0.0884514               2.4069
        25                          0.1001124               2.7242
        26                          0.1232541               3.3539
        27                          0.1319712               3.5911
        28                          0.1435705               3.9068
       ...                                ...                  ...
        35                          0.2903549               7.9010
      -------------------------------------------------------------
                  HL-Gap            0.3371271 Eh            9.1737 eV

     #   Z          covCN         q      C6AA      α(0)
     1   7 N        2.695    -0.306    27.878     7.842
     2   6 C        3.732     0.007    20.553     6.471
     3   6 C        3.802    -0.068    21.796     6.647
     4   6 C        3.753    -0.107    22.604     6.780
     5  17 Cl       0.837    -0.486   115.173    16.418
     6   1 H        0.860     0.166     1.299     1.785
     7   1 H        0.860     0.166     1.294     1.782
     8   1 H        0.901     0.332     0.624     1.235
     9   1 H        0.923     0.024     2.670     2.555
    10   1 H        0.924     0.053     2.285     2.364
    11   1 H        0.925     0.062     2.180     2.309
    12   1 H        0.924     0.037     2.494     2.469
    13   1 H        0.925     0.041     2.434     2.440
    14   1 H        0.925     0.044     2.394     2.420
    15   1 H        0.925     0.036     2.507     2.476

Wiberg/Mayer (AO) data.
largest (>0.10) Wiberg bond orders for each atom

     #   Z sym  total        # sym  WBO       # sym  WBO       # sym  WBO
 ---------------------------------------------------------------------------
     1   7 N    3.239 --     2 C    1.004     6 H    0.959     7 H    0.958
                             8 H    0.207
     2   6 C    3.973 --     3 C    1.007     1 N    1.004    10 H    0.974
                             9 H    0.973
     3   6 C    3.994 --     4 C    1.019     2 C    1.007    12 H    0.977
                            11 H    0.974
     4   6 C    3.996 --     3 C    1.019    15 H    0.988    13 H    0.987
                            14 H    0.987
     5  17 Cl   0.767 --     8 H    0.679
     6   1 H    0.972 --     1 N    0.959
     7   1 H    0.972 --     1 N    0.958
     8   1 H    0.890 --     5 Cl   0.679     1 N    0.207
     9   1 H    0.999 --     2 C    0.973
    10   1 H    0.997 --     2 C    0.974
    11   1 H    0.996 --     3 C    0.974
    12   1 H    0.999 --     3 C    0.977
    13   1 H    0.998 --     4 C    0.987
    14   1 H    0.998 --     4 C    0.987
    15   1 H    0.999 --     4 C    0.988
 ---------------------------------------------------------------------------

molecular dipole:
                 x           y           z       tot (Debye)
 q only:        1.114       1.136      -1.119
   full:        0.935       1.127      -1.146       4.725

           -------------------------------------------------
          | TOTAL ENERGY              -18.987832223877 Eh   |
          | GRADIENT NORM               0.000489196443 Eh/α |
          | HOMO-LUMO GAP               9.173696560380 eV   |
           -------------------------------------------------

 * finished run on 2023/01/23 at 13:50:19.570
