   * xtb version 6.5.1 (fef0646) compiled by 'conda@b96dff2e9fd6' on 2023-01-04
          program call               : xtb init.xyz --opt -c 0 -u 0 -P 16 --alpb water

   ID    Z sym.   atoms
    1    7 N      1
    2    6 C      2-5
    3   17 Cl     6
    4    1 H      7-16

      * Solvation model:               ALPB
        Solvent                        water
        Solvent mass                       1.8000E+01 g/mol
          :  Hamiltonian                  GFN2-xTB          :
 * total energy  :   -21.1482269 Eh     change       -0.8030376E-09 Eh
 * total energy  :   -21.1549353 Eh     change       -0.6708386E-02 Eh
 * total energy  :   -21.1562035 Eh     change       -0.1268194E-02 Eh
 * total energy  :   -21.1569080 Eh     change       -0.7044872E-03 Eh
 * total energy  :   -21.1571692 Eh     change       -0.2612657E-03 Eh
 * total energy  :   -21.1574104 Eh     change       -0.2411827E-03 Eh
 * total energy  :   -21.1576896 Eh     change       -0.2791835E-03 Eh
 * total energy  :   -21.1579354 Eh     change       -0.2458365E-03 Eh
 * total energy  :   -21.1580848 Eh     change       -0.1493458E-03 Eh
 * total energy  :   -21.1581530 Eh     change       -0.6824219E-04 Eh
 * total energy  :   -21.1581982 Eh     change       -0.4514013E-04 Eh
 * total energy  :   -21.1582171 Eh     change       -0.1895376E-04 Eh
 * total energy  :   -21.1582269 Eh     change       -0.9764887E-05 Eh
 * total energy  :   -21.1582391 Eh     change       -0.1219379E-04 Eh
 * total energy  :   -21.1582432 Eh     change       -0.4108129E-05 Eh
 * total energy  :   -21.1582460 Eh     change       -0.2798289E-05 Eh
   *** GEOMETRY OPTIMIZATION CONVERGED AFTER 16 ITERATIONS ***

 final structure:
================
16
 xtb: 6.5.1 (fef0646)
N            1.19490699307966       -0.00305215809223       -0.39554592832947
C            2.65899942715078        0.16848313035309       -0.39411190782340
C            3.44156744716479       -0.93613367636738        0.32414516570735
C            4.23692075886093        0.14555218723872        1.07289630287340
C            3.19579606278445        1.18263380313487        0.62183087282858
Cl           0.11971237782921       -0.63911047918552        2.39959284184089
H            0.91612754921097       -0.79741653368886       -0.97660127124820
H            0.72125276627850        0.84484793992840       -0.71635602638199
H            0.85517415198973       -0.20344939193152        0.58156752613173
H            3.00642770881649        0.35261210302238       -1.41090339082743
H            4.01145634592610       -1.62221939572113       -0.29544779808458
H            2.79771833025000       -1.49661174394730        0.99782434446491
H            5.22082663199112        0.31964872261853        0.64549158622420
H            4.33316422711592        0.00587320390308        2.14590806371838
H            3.57834695559909        2.12013428904514        0.22899097636284
H            2.46548226595250        1.38071799968979        1.40261864254300

          :  Hamiltonian                  GFN2-xTB          :
         :: total energy             -21.158245971854 Eh    ::
         :: gradient norm              0.000450668882 Eh/a0 ::
         :: HOMO-LUMO gap             10.264252817111 eV    ::
         :: SCC energy               -21.387653396186 Eh    ::
         :: -> dispersion             -0.009155957855 Eh    ::
         :: -> Gsolv                  -0.069849716859 Eh    ::
         :: repulsion energy           0.229373583419 Eh    ::

    * Orbital Energies and Occupations

         #    Occupation            Energy/Eh            Energy/eV
      -------------------------------------------------------------
         1        2.0000           -1.0065371             -27.3893
       ...           ...                  ...                  ...
         7        2.0000           -0.5567234             -15.1492
         8        2.0000           -0.5548983             -15.0996
         9        2.0000           -0.5298144             -14.4170
        10        2.0000           -0.5136456             -13.9770
        11        2.0000           -0.4823734             -13.1260
        12        2.0000           -0.4720804             -12.8460
        13        2.0000           -0.4620401             -12.5728
        14        2.0000           -0.4326791             -11.7738
        15        2.0000           -0.4223538             -11.4928
        16        2.0000           -0.4189195             -11.3994
        17        2.0000           -0.4020535             -10.9404
        18        2.0000           -0.4004791             -10.8976
        19        2.0000           -0.3999137             -10.8822 (HOMO)
        20                         -0.0227094              -0.6180 (LUMO)
        21                          0.0377383               1.0269
        22                          0.0385565               1.0492
        23                          0.0671299               1.8267
        24                          0.0690994               1.8803
        25                          0.1049135               2.8548
        26                          0.1170234               3.1844
        27                          0.1171904               3.1889
        28                          0.1193527               3.2478
        29                          0.1195019               3.2518
        30                          0.1238427               3.3699
       ...                                ...                  ...
        39                          0.3944327              10.7331
      -------------------------------------------------------------
                  HL-Gap            0.3772044 Eh           10.2643 eV

     #   Z          covCN         q      C6AA      α(0)
     1   7 N        3.483    -0.179    24.875     7.408
     2   6 C        3.981     0.028    20.028     6.358
     3   6 C        4.002    -0.082    21.974     6.659
     4   6 C        4.000    -0.065    21.672     6.614
     5   6 C        4.002    -0.082    21.976     6.660
     6  17 Cl       0.047    -0.948   124.904    17.009
     7   1 H        0.859     0.302     0.708     1.318
     8   1 H        0.859     0.302     0.706     1.317
     9   1 H        0.904     0.297     0.720     1.327
    10   1 H        0.925     0.098     1.807     2.102
    11   1 H        0.925     0.058     2.219     2.329
    12   1 H        0.925     0.064     2.150     2.293
    13   1 H        0.925     0.050     2.318     2.381
    14   1 H        0.925     0.034     2.537     2.491
    15   1 H        0.925     0.059     2.207     2.323
    16   1 H        0.925     0.064     2.152     2.294

Wiberg/Mayer (AO) data.
largest (>0.10) Wiberg bond orders for each atom

     #   Z sym  total        # sym  WBO       # sym  WBO       # sym  WBO
 ---------------------------------------------------------------------------
     1   7 N    3.640 --     2 C    0.959     7 H    0.893     8 H    0.892
                             9 H    0.828
     2   6 C    3.933 --     3 C    0.996     5 C    0.996    10 H    0.962
                             1 N    0.959
     3   6 C    3.986 --     4 C    1.003     2 C    0.996    11 H    0.979
                            12 H    0.975
     4   6 C    3.991 --     3 C    1.003     5 C    1.003    14 H    0.984
                            13 H    0.982
     5   6 C    3.985 --     4 C    1.003     2 C    0.996    15 H    0.979
                            16 H    0.975
     6  17 Cl   0.102
     7   1 H    0.909 --     1 N    0.893
     8   1 H    0.909 --     1 N    0.892
     9   1 H    0.912 --     1 N    0.828
    10   1 H    0.990 --     2 C    0.962
    11   1 H    0.997 --     3 C    0.979
    12   1 H    0.996 --     3 C    0.975
    13   1 H    0.997 --     4 C    0.982
    14   1 H    0.999 --     4 C    0.984
    15   1 H    0.996 --     5 C    0.979
    16   1 H    0.996 --     5 C    0.975
 ---------------------------------------------------------------------------

molecular dipole:
                 x           y           z       tot (Debye)
 q only:        2.194       1.153      -4.882
   full:        1.729       0.979      -4.252      11.930

           -------------------------------------------------
          | TOTAL ENERGY              -21.158245971854 Eh   |
          | GRADIENT NORM               0.000450668882 Eh/α |
          | HOMO-LUMO GAP              10.264252817111 eV   |
           -------------------------------------------------

 * finished run on 2023/01/24 at 15:10:28.805
