   * xtb version 6.5.1 (fef0646) compiled by 'conda@b96dff2e9fd6' on 2023-01-04
          program call               : xtb init.xyz --opt -c 0 -u 0 -P 16 --input xtb.inp

   ID    Z sym.   atoms
    1    7 N      1
    2    6 C      2-5
    3   17 Cl     6
    4    1 H      7-16

          :  Hamiltonian                  GFN2-xTB          :
 * total energy  :   -21.0930875 Eh     change       -0.5618581E-09 Eh
 * total energy  :   -21.1012648 Eh     change       -0.8177300E-02 Eh
 * total energy  :   -21.1058191 Eh     change       -0.4554307E-02 Eh
 * total energy  :   -21.1097413 Eh     change       -0.3922219E-02 Eh
 * total energy  :   -21.1122788 Eh     change       -0.2537505E-02 Eh
 * total energy  :   -21.1140901 Eh     change       -0.1811299E-02 Eh
 * total energy  :   -21.1153410 Eh     change       -0.1250845E-02 Eh
 * total energy  :   -21.1160081 Eh     change       -0.6671525E-03 Eh
 * total energy  :   -21.1164293 Eh     change       -0.4212039E-03 Eh
 * total energy  :   -21.1165075 Eh     change       -0.7820904E-04 Eh
 * total energy  :   -21.1170305 Eh     change       -0.1104482E-03 Eh
 * total energy  :   -21.1170943 Eh     change       -0.6377427E-04 Eh
 * total energy  :   -21.1171228 Eh     change       -0.2856829E-04 Eh
 * total energy  :   -21.1171419 Eh     change       -0.1907208E-04 Eh
 * total energy  :   -21.1171563 Eh     change       -0.1442334E-04 Eh
 * total energy  :   -21.1171726 Eh     change       -0.1627791E-04 Eh
 * total energy  :   -21.1171911 Eh     change       -0.1845512E-04 Eh
 * total energy  :   -21.1171965 Eh     change       -0.5442322E-05 Eh
 * total energy  :   -21.1171976 Eh     change       -0.1112842E-05 Eh
   *** GEOMETRY OPTIMIZATION CONVERGED AFTER 22 ITERATIONS ***

 final structure:
================
16
 xtb: 6.5.1 (fef0646)
N            1.15759936133351       -0.04571112872248       -0.34033810458359
C            2.60992812785830       -0.14509698778515       -0.28734665012768
C            3.14261578527430       -1.16941017836899        0.72744743011960
C            4.06051675629448       -0.08676158445492        1.31522778273180
C            3.29732888638833        0.97550063993296        0.50926183283201
Cl          -0.00908099233215        0.30355258651138        2.32885303772561
H            0.74761564447097       -0.88699122452509       -0.73242022654579
H            0.86583397329477        0.75325822756053       -0.89360898982006
H            0.57112131395548        0.13559907778406        1.09013213128493
H            3.04896594258781       -0.27806495506559       -1.28558911875744
H            3.63136354903895       -2.04784335855788        0.31259756835937
H            2.36681287517919       -1.47758281774833        1.42280120426198
H            5.09686524582036       -0.19313607208658        1.00254903919285
H            4.02357966017934        0.02554309812132        2.39481984053050
H            3.90031839207473        1.67373159594584       -0.06657317566336
H            2.58365547858084        1.52449308145839        1.11714639845882

          :  Hamiltonian                  GFN2-xTB          :
         :: total energy             -21.117197627993 Eh    ::
         :: gradient norm              0.000273843810 Eh/a0 ::
         :: HOMO-LUMO gap              9.247767367786 eV    ::
         :: SCC energy               -21.337986721622 Eh    ::
         :: -> dispersion             -0.009831623642 Eh    ::
         :: repulsion energy           0.220755259693 Eh    ::

    * Orbital Energies and Occupations

         #    Occupation            Energy/Eh            Energy/eV
      -------------------------------------------------------------
         1        2.0000           -1.0161675             -27.6513
       ...           ...                  ...                  ...
         7        2.0000           -0.5541715             -15.0798
         8        2.0000           -0.5492813             -14.9467
         9        2.0000           -0.5306408             -14.4395
        10        2.0000           -0.5056865             -13.7604
        11        2.0000           -0.4908435             -13.3565
        12        2.0000           -0.4774053             -12.9909
        13        2.0000           -0.4729407             -12.8694
        14        2.0000           -0.4407100             -11.9923
        15        2.0000           -0.4331696             -11.7871
        16        2.0000           -0.4309509             -11.7268
        17        2.0000           -0.3959000             -10.7730
        18        2.0000           -0.3931581             -10.6984
        19        2.0000           -0.3930818             -10.6963 (HOMO)
        20                         -0.0532326              -1.4485 (LUMO)
        21                          0.0143355               0.3901
        22                          0.0286390               0.7793
        23                          0.0322419               0.8773
        24                          0.0624026               1.6981
        25                          0.0686021               1.8668
        26                          0.0688016               1.8722
        27                          0.0744272               2.0253
        28                          0.0745948               2.0298
        29                          0.0941801               2.5628
        30                          0.1105951               3.0094
       ...                                ...                  ...
        39                          0.3753979              10.2151
      -------------------------------------------------------------
                  HL-Gap            0.3398492 Eh            9.2478 eV

     #   Z          covCN         q      C6AA      α(0)
     1   7 N        2.697    -0.306    27.861     7.839
     2   6 C        3.969     0.047    19.716     6.309
     3   6 C        3.991    -0.077    21.885     6.646
     4   6 C        3.989    -0.060    21.577     6.599
     5   6 C        3.991    -0.077    21.884     6.646
     6  17 Cl       0.836    -0.493   115.437    16.436
     7   1 H        0.860     0.167     1.292     1.780
     8   1 H        0.860     0.167     1.291     1.780
     9   1 H        0.903     0.335     0.616     1.228
    10   1 H        0.923     0.018     2.768     2.602
    11   1 H        0.925     0.035     2.515     2.480
    12   1 H        0.925     0.063     2.162     2.299
    13   1 H        0.925     0.038     2.479     2.462
    14   1 H        0.925     0.045     2.384     2.415
    15   1 H        0.925     0.035     2.516     2.480
    16   1 H        0.925     0.063     2.163     2.300

Wiberg/Mayer (AO) data.
largest (>0.10) Wiberg bond orders for each atom

     #   Z sym  total        # sym  WBO       # sym  WBO       # sym  WBO
 ---------------------------------------------------------------------------
     1   7 N    3.246 --     2 C    0.998     7 H    0.956     8 H    0.956
                             9 H    0.211
     2   6 C    3.968 --     1 N    0.998     5 C    0.993     3 C    0.993
                            10 H    0.967
     3   6 C    3.989 --     4 C    1.004     2 C    0.993    11 H    0.982
                            12 H    0.976
     4   6 C    3.991 --     3 C    1.004     5 C    1.004    13 H    0.983
                            14 H    0.983
     5   6 C    3.989 --     4 C    1.004     2 C    0.993    15 H    0.982
                            16 H    0.976
     6  17 Cl   0.760 --     9 H    0.670
     7   1 H    0.972 --     1 N    0.956
     8   1 H    0.972 --     1 N    0.956
     9   1 H    0.888 --     6 Cl   0.670     1 N    0.211
    10   1 H    1.000 --     2 C    0.967
    11   1 H    0.999 --     3 C    0.982
    12   1 H    0.996 --     3 C    0.976
    13   1 H    0.999 --     4 C    0.983
    14   1 H    0.998 --     4 C    0.983
    15   1 H    0.999 --     5 C    0.982
    16   1 H    0.996 --     5 C    0.976
 ---------------------------------------------------------------------------

molecular dipole:
                 x           y           z       tot (Debye)
 q only:        0.945      -0.228      -1.602
   full:        0.725      -0.211      -1.604       4.505

           -------------------------------------------------
          | TOTAL ENERGY              -21.117197627993 Eh   |
          | GRADIENT NORM               0.000273843810 Eh/α |
          | HOMO-LUMO GAP               9.247767367786 eV   |
           -------------------------------------------------

 * finished run on 2023/01/23 at 18:41:19.302
