   * xtb version 6.5.1 (fef0646) compiled by 'conda@b96dff2e9fd6' on 2023-01-04
          program call               : xtb init.xyz --opt -c 1 -u 0 -P 16 --input xtb.inp

   ID    Z sym.   atoms
    1    8 O      1
    2    6 C      2-4
    3    7 N      5
    4    1 H      6-15

          :  Hamiltonian                  GFN2-xTB          :
 * total energy  :   -18.0766214 Eh     change       -0.3207390E-10 Eh
 * total energy  :   -18.0785126 Eh     change       -0.1891153E-02 Eh
 * total energy  :   -18.0789924 Eh     change       -0.4798775E-03 Eh
 * total energy  :   -18.0791598 Eh     change       -0.1673875E-03 Eh
 * total energy  :   -18.0792326 Eh     change       -0.7282314E-04 Eh
 * total energy  :   -18.0792620 Eh     change       -0.2931257E-04 Eh
 * total energy  :   -18.0792851 Eh     change       -0.2316534E-04 Eh
 * total energy  :   -18.0792945 Eh     change       -0.9423293E-05 Eh
 * total energy  :   -18.0792970 Eh     change       -0.2463396E-05 Eh
   *** GEOMETRY OPTIMIZATION CONVERGED AFTER 9 ITERATIONS ***

 final structure:
================
15
 xtb: 6.5.1 (fef0646)
O            2.88793339107719       -1.24505593329796       -0.14838123874923
C            2.40707269167702        0.08240504214138        0.07442059337884
C            2.92913975800713        0.98834713281058       -1.04085152285424
C            4.45185436597171        1.03724420513977       -1.06018177481824
N            4.96413619427145       -0.32143713290186       -1.39854810058980
H            2.48381394663782       -1.84998210553227        0.48232019564799
H            2.75442993929991        0.44280510968829        1.05002239012946
H            1.31412160527699        0.09038514901878        0.06815860954678
H            2.53702769761537        1.99145169051389       -0.88352931076225
H            2.55577917832597        0.62910146610809       -2.00087238680810
H            4.82970306306528        1.31126584574228       -0.07377288246787
H            4.81272563487756        1.76536034320181       -1.78728169281545
H            4.33968937369198       -0.98540607760906       -0.85188858923356
H            5.95074664584534       -0.44531515230296       -1.15732659265419
H            4.83542651435930       -0.52266958272077       -2.39513769695011

          :  Hamiltonian                  GFN2-xTB          :
         :: total energy             -18.079297010655 Eh    ::
         :: gradient norm              0.000413523613 Eh/a0 ::
         :: HOMO-LUMO gap              9.273622573094 eV    ::
         :: SCC energy               -18.283316532702 Eh    ::
         :: -> dispersion             -0.006407252853 Eh    ::
         :: repulsion energy           0.204007450674 Eh    ::

    * Orbital Energies and Occupations

         #    Occupation            Energy/Eh            Energy/eV
      -------------------------------------------------------------
         1        2.0000           -0.8765387             -23.8518
       ...           ...                  ...                  ...
         4        2.0000           -0.7996982             -21.7609
         5        2.0000           -0.7823124             -21.2878
         6        2.0000           -0.7792596             -21.2047
         7        2.0000           -0.7591649             -20.6579
         8        2.0000           -0.7295429             -19.8519
         9        2.0000           -0.7236333             -19.6911
        10        2.0000           -0.6897050             -18.7678
        11        2.0000           -0.6869125             -18.6918
        12        2.0000           -0.6719157             -18.2838
        13        2.0000           -0.6403839             -17.4257
        14        2.0000           -0.6302103             -17.1489
        15        2.0000           -0.6108923             -16.6232
        16        2.0000           -0.5793254             -15.7642 (HOMO)
        17                         -0.2385261              -6.4906 (LUMO)
        18                         -0.1622695              -4.4156
        19                         -0.1218445              -3.3156
        20                         -0.0960191              -2.6128
        21                         -0.0643775              -1.7518
        22                         -0.0567067              -1.5431
        23                         -0.0367381              -0.9997
        24                         -0.0208905              -0.5685
        25                         -0.0070740              -0.1925
        26                          0.0347400               0.9453
        27                          0.0641704               1.7462
       ...                                ...                  ...
        30                          0.1138557               3.0982
      -------------------------------------------------------------
                  HL-Gap            0.3407994 Eh            9.2736 eV

     #   Z          covCN         q      C6AA      α(0)
     1   8 O        1.654    -0.444    21.732     6.293
     2   6 C        3.673     0.058    19.825     6.381
     3   6 C        3.803    -0.091    22.234     6.713
     4   6 C        3.731    -0.027    21.155     6.565
     5   7 N        3.481    -0.159    24.437     7.342
     6   1 H        0.805     0.320     0.663     1.279
     7   1 H        0.924     0.054     2.275     2.359
     8   1 H        0.924     0.068     2.104     2.268
     9   1 H        0.925     0.097     1.808     2.103
    10   1 H        0.924     0.085     1.924     2.169
    11   1 H        0.924     0.105     1.741     2.064
    12   1 H        0.924     0.102     1.770     2.080
    13   1 H        0.856     0.318     0.664     1.276
    14   1 H        0.859     0.255     0.863     1.456
    15   1 H        0.859     0.259     0.849     1.443

Wiberg/Mayer (AO) data.
largest (>0.10) Wiberg bond orders for each atom

     #   Z sym  total        # sym  WBO       # sym  WBO       # sym  WBO
 ---------------------------------------------------------------------------
     1   8 O    2.024 --     2 C    0.973     6 H    0.877
     2   6 C    3.940 --     3 C    1.009     1 O    0.973     8 H    0.971
                             7 H    0.970
     3   6 C    3.984 --     4 C    1.013     2 C    1.009    10 H    0.968
                             9 H    0.962
     4   6 C    3.914 --     3 C    1.013    12 H    0.969    11 H    0.967
                             5 N    0.946
     5   7 N    3.648 --     4 C    0.946    14 H    0.921    15 H    0.918
                            13 H    0.795
     6   1 H    0.897 --     1 O    0.877
     7   1 H    0.997 --     2 C    0.970
     8   1 H    0.995 --     2 C    0.971
     9   1 H    0.990 --     3 C    0.962
    10   1 H    0.993 --     3 C    0.968
    11   1 H    0.989 --     4 C    0.967
    12   1 H    0.990 --     4 C    0.969
    13   1 H    0.899 --     5 N    0.795
    14   1 H    0.935 --     5 N    0.921
    15   1 H    0.933 --     5 N    0.918
 ---------------------------------------------------------------------------

molecular dipole:
                 x           y           z       tot (Debye)
 q only:        8.168      -0.130      -1.891
   full:        8.167      -0.307      -1.777      21.258

           -------------------------------------------------
          | TOTAL ENERGY              -18.079297010655 Eh   |
          | GRADIENT NORM               0.000413523613 Eh/α |
          | HOMO-LUMO GAP               9.273622573094 eV   |
           -------------------------------------------------

 * finished run on 2023/01/23 at 18:36:08.574
