   * xtb version 6.5.1 (fef0646) compiled by 'conda@b96dff2e9fd6' on 2023-01-04
          program call               : xtb init.xyz --opt -c 1 -u 0 -P 16 --alpb water

   ID    Z sym.   atoms
    1    7 N      1
    2    6 C      2-5
    3    1 H      6-15

      * Solvation model:               ALPB
        Solvent                        water
        Solvent mass                       1.8000E+01 g/mol
          :  Hamiltonian                  GFN2-xTB          :
 * total energy  :   -16.2179895 Eh     change       -0.1946390E-09 Eh
 * total energy  :   -16.2196764 Eh     change       -0.1686889E-02 Eh
 * total energy  :   -16.2198596 Eh     change       -0.1832363E-03 Eh
 * total energy  :   -16.2198903 Eh     change       -0.3070557E-04 Eh
 * total energy  :   -16.2199069 Eh     change       -0.1659243E-04 Eh
 * total energy  :   -16.2199095 Eh     change       -0.2582648E-05 Eh
   *** GEOMETRY OPTIMIZATION CONVERGED AFTER 6 ITERATIONS ***

 final structure:
================
15
 xtb: 6.5.1 (fef0646)
N            0.96416396915521       -0.04432256762744        0.05952819928762
C            2.44707334072709       -0.06777643498970        0.07799395921528
C            2.95669829612808       -1.43013295605565        0.54753307425027
C            4.45592860443379       -1.44868181564509        0.56686757287302
C            5.17957589939712       -1.68724838466622        1.64416555788362
H            0.61761662277214        0.87204142544535       -0.24723252920669
H            0.59708817756010       -0.23780778742939        0.99902246771390
H            0.60575158644197       -0.76385709055528       -0.57973986594921
H            2.81163889264482        0.70718272065909        0.75201545240598
H            2.82305597215096        0.13973931423909       -0.92383889296487
H            2.61488051746847       -2.21030221910257       -0.13616086311898
H            2.58756809934177       -1.65396131373942        1.54857165290487
H            4.94116349369658       -1.25235777583185       -0.37965504329235
H            4.73033486544666       -1.89247808132676        2.60248089395462
H            6.25588166263524       -1.70119703337415        1.61893836404292

          :  Hamiltonian                  GFN2-xTB          :
         :: total energy             -16.219909508167 Eh    ::
         :: gradient norm              0.000329005261 Eh/a0 ::
         :: HOMO-LUMO gap              5.449503086172 eV    ::
         :: SCC energy               -16.482999572667 Eh    ::
         :: -> dispersion             -0.006394051413 Eh    ::
         :: -> Gsolv                  -0.119204139774 Eh    ::
         :: repulsion energy           0.263088501717 Eh    ::

    * Orbital Energies and Occupations

         #    Occupation            Energy/Eh            Energy/eV
      -------------------------------------------------------------
         1        2.0000           -0.6937070             -18.8767
       ...           ...                  ...                  ...
         3        2.0000           -0.6245265             -16.9942
         4        2.0000           -0.6037358             -16.4285
         5        2.0000           -0.5909000             -16.0792
         6        2.0000           -0.5813961             -15.8206
         7        2.0000           -0.5505784             -14.9820
         8        2.0000           -0.5415437             -14.7362
         9        2.0000           -0.5152033             -14.0194
        10        2.0000           -0.4970330             -13.5250
        11        2.0000           -0.4793068             -13.0426
        12        2.0000           -0.4692427             -12.7687
        13        2.0000           -0.4445265             -12.0962
        14        2.0000           -0.4316219             -11.7450
        15        2.0000           -0.4046265             -11.0104 (HOMO)
        16                         -0.2043609              -5.5609 (LUMO)
        17                         -0.0498508              -1.3565
        18                          0.0558376               1.5194
        19                          0.0886921               2.4134
        20                          0.1034586               2.8153
        21                          0.1250504               3.4028
        22                          0.1329903               3.6188
        23                          0.1509818               4.1084
        24                          0.1957140               5.3256
        25                          0.2068682               5.6292
        26                          0.2072324               5.6391
       ...                                ...                  ...
        30                          0.6217191              16.9178
      -------------------------------------------------------------
                  HL-Gap            0.2002656 Eh            5.4495 eV

     #   Z          covCN         q      C6AA      α(0)
     1   7 N        3.484    -0.161    24.475     7.348
     2   6 C        3.734    -0.035    21.286     6.585
     3   6 C        3.807    -0.088    22.165     6.702
     4   6 C        2.888    -0.037    28.926     8.818
     5   6 C        2.837    -0.103    30.588     9.063
     6   1 H        0.859     0.316     0.667     1.279
     7   1 H        0.859     0.309     0.686     1.297
     8   1 H        0.859     0.310     0.685     1.297
     9   1 H        0.925     0.107     1.719     2.050
    10   1 H        0.925     0.109     1.704     2.041
    11   1 H        0.924     0.080     1.981     2.201
    12   1 H        0.925     0.074     2.040     2.234
    13   1 H        0.925     0.043     2.412     2.428
    14   1 H        0.926     0.046     2.374     2.409
    15   1 H        0.926     0.029     2.595     2.519

Wiberg/Mayer (AO) data.
largest (>0.10) Wiberg bond orders for each atom

     #   Z sym  total        # sym  WBO       # sym  WBO       # sym  WBO
 ---------------------------------------------------------------------------
     1   7 N    3.653 --     2 C    0.967     7 H    0.889     8 H    0.889
                             6 H    0.887
     2   6 C    3.928 --     3 C    0.999     1 N    0.967     9 H    0.967
                            10 H    0.966
     3   6 C    3.990 --     4 C    1.020     2 C    0.999    12 H    0.970
                            11 H    0.957
     4   6 C    3.990 --     5 C    1.984     3 C    1.020    13 H    0.966
     5   6 C    3.991 --     4 C    1.984    15 H    0.977    14 H    0.974
     6   1 H    0.899 --     1 N    0.887
     7   1 H    0.904 --     1 N    0.889
     8   1 H    0.904 --     1 N    0.889
     9   1 H    0.988 --     2 C    0.967
    10   1 H    0.988 --     2 C    0.966
    11   1 H    0.994 --     3 C    0.957
    12   1 H    0.994 --     3 C    0.970
    13   1 H    0.998 --     4 C    0.966
    14   1 H    0.998 --     5 C    0.974
    15   1 H    0.999 --     5 C    0.977
 ---------------------------------------------------------------------------

molecular dipole:
                 x           y           z       tot (Debye)
 q only:        1.872      -0.132       0.066
   full:        1.836      -0.151       0.079       4.686

           -------------------------------------------------
          | TOTAL ENERGY              -16.219909508167 Eh   |
          | GRADIENT NORM               0.000329005261 Eh/α |
          | HOMO-LUMO GAP               5.449503086172 eV   |
           -------------------------------------------------

 * finished run on 2023/01/24 at 15:55:35.474
