   * xtb version 6.5.1 (fef0646) compiled by 'conda@b96dff2e9fd6' on 2023-01-04
          program call               : xtb init.xyz --opt -c 0 -u 0 -P 16 --alpb water

   ID    Z sym.   atoms
    1    7 N      1
    2    6 C      2-7
    3   16 S      8
    4   17 Cl     9
    5    1 H      10-19

      * Solvation model:               ALPB
        Solvent                        water
        Solvent mass                       1.8000E+01 g/mol
          :  Hamiltonian                  GFN2-xTB          :
 * total energy  :   -28.6732940 Eh     change       -0.3167600E-10 Eh
 * total energy  :   -28.6780472 Eh     change       -0.4753202E-02 Eh
 * total energy  :   -28.6791926 Eh     change       -0.1145440E-02 Eh
 * total energy  :   -28.6794315 Eh     change       -0.2388071E-03 Eh
 * total energy  :   -28.6795146 Eh     change       -0.8316325E-04 Eh
 * total energy  :   -28.6795807 Eh     change       -0.6612293E-04 Eh
 * total energy  :   -28.6796723 Eh     change       -0.9153805E-04 Eh
 * total energy  :   -28.6797689 Eh     change       -0.9666839E-04 Eh
 * total energy  :   -28.6798591 Eh     change       -0.9019168E-04 Eh
 * total energy  :   -28.6799408 Eh     change       -0.8161376E-04 Eh
 * total energy  :   -28.6799731 Eh     change       -0.3238285E-04 Eh
 * total energy  :   -28.6799863 Eh     change       -0.1312966E-04 Eh
 * total energy  :   -28.6799927 Eh     change       -0.6401621E-05 Eh
 * total energy  :   -28.6799960 Eh     change       -0.3292967E-05 Eh
   *** GEOMETRY OPTIMIZATION CONVERGED AFTER 14 ITERATIONS ***

 final structure:
================
19
 xtb: 6.5.1 (fef0646)
N            1.10610531767385       -0.05074266104460       -0.33238797383527
C            2.57882559371131        0.00104615888250       -0.35287697592816
C            3.12647203512801       -0.48179379233473       -1.69957678850396
C            4.61180007558425       -0.35352812612510       -1.72992047229173
C            5.55662146061659       -1.31921055142101       -1.58579961662673
C            6.87850983677089       -0.81561311369718       -1.62766666168700
C            6.92042955309230        0.52841797738305       -1.79823027783240
S            5.34849798344765        1.21137499013588       -1.91387634855429
Cl           0.10505668581136        0.58029132705030        2.46581123957033
H            0.74752136387004        0.20390032459396        0.62409542037346
H            0.76938914689350       -0.99444439721692       -0.53808761796535
H            0.70367400738948        0.60658232445467       -1.00437279330401
H            2.96212707155220       -0.62169549202804        0.45471895099657
H            2.89849596038697        1.02609300488280       -0.16783860719012
H            2.70178558182491        0.11962794939009       -2.50373001646080
H            2.86605190533084       -1.52776900101475       -1.85923841951360
H            5.32765956195589       -2.36157515210171       -1.45753283614662
H            7.75621445462758       -1.42964590483694       -1.53400767351434
H            7.77568240433199        1.17110413504751       -1.86476253158603

          :  Hamiltonian                  GFN2-xTB          :
         :: total energy             -28.679995962645 Eh    ::
         :: gradient norm              0.000905727383 Eh/a0 ::
         :: HOMO-LUMO gap              3.925913574961 eV    ::
         :: SCC energy               -29.030774660578 Eh    ::
         :: -> dispersion             -0.014346351482 Eh    ::
         :: -> Gsolv                  -0.072725958250 Eh    ::
         :: repulsion energy           0.350798639064 Eh    ::

    * Orbital Energies and Occupations

         #    Occupation            Energy/Eh            Energy/eV
      -------------------------------------------------------------
         1        2.0000           -1.0062462             -27.3814
       ...           ...                  ...                  ...
        14        2.0000           -0.5020081             -13.6603
        15        2.0000           -0.4828271             -13.1384
        16        2.0000           -0.4675025             -12.7214
        17        2.0000           -0.4638277             -12.6214
        18        2.0000           -0.4617256             -12.5642
        19        2.0000           -0.4581624             -12.4672
        20        2.0000           -0.4441887             -12.0870
        21        2.0000           -0.4354690             -11.8497
        22        2.0000           -0.4037898             -10.9877
        23        2.0000           -0.3999759             -10.8839
        24        2.0000           -0.3999551             -10.8833
        25        2.0000           -0.3910156             -10.6401
        26        2.0000           -0.3826260             -10.4118 (HOMO)
        27                         -0.2383514              -6.4859 (LUMO)
        28                         -0.1973218              -5.3694
        29                         -0.1626222              -4.4252
        30                         -0.1124497              -3.0599
        31                         -0.0245591              -0.6683
        32                          0.0027615               0.0751
        33                          0.0275746               0.7503
        34                          0.0381939               1.0393
        35                          0.0818892               2.2283
        36                          0.0941866               2.5629
        37                          0.1167298               3.1764
       ...                                ...                  ...
        56                          0.7043442              19.1662
      -------------------------------------------------------------
                  HL-Gap            0.1442747 Eh            3.9259 eV

     #   Z          covCN         q      C6AA      α(0)
     1   7 N        3.483    -0.166    24.589     7.365
     2   6 C        3.735    -0.022    21.048     6.548
     3   6 C        3.827    -0.088    22.163     6.699
     4   6 C        2.989     0.024    27.452     8.595
     5   6 C        3.119    -0.064    29.422     8.884
     6   6 C        3.118    -0.053    29.133     8.841
     7   6 C        2.939    -0.030    28.742     8.793
     8  16 S        2.336    -0.052   143.219    20.142
     9  17 Cl       0.062    -0.945   124.791    17.001
    10   1 H        0.918     0.297     0.719     1.326
    11   1 H        0.859     0.300     0.714     1.324
    12   1 H        0.859     0.301     0.709     1.319
    13   1 H        0.925     0.098     1.803     2.100
    14   1 H        0.925     0.102     1.770     2.081
    15   1 H        0.924     0.091     1.868     2.137
    16   1 H        0.925     0.085     1.927     2.171
    17   1 H        0.926     0.050     2.322     2.383
    18   1 H        0.926     0.035     2.519     2.482
    19   1 H        0.926     0.038     2.476     2.461

Wiberg/Mayer (AO) data.
largest (>0.10) Wiberg bond orders for each atom

     #   Z sym  total        # sym  WBO       # sym  WBO       # sym  WBO
 ---------------------------------------------------------------------------
     1   7 N    3.645 --     2 C    0.973    11 H    0.895    12 H    0.895
                            10 H    0.827
     2   6 C    3.933 --     3 C    0.990     1 N    0.973    13 H    0.969
                            14 H    0.967
     3   6 C    3.988 --     4 C    1.023     2 C    0.990    16 H    0.964
                            15 H    0.960
     4   6 C    3.947 --     5 C    1.610     8 S    1.153     3 C    1.023
                             7 C    0.115
     5   6 C    3.985 --     4 C    1.610     6 C    1.263    17 H    0.963
     6   6 C    3.988 --     7 C    1.639     5 C    1.263    18 H    0.965
     7   6 C    3.949 --     6 C    1.639     8 S    1.185    19 H    0.972
                             4 C    0.115
     8  16 S    2.599 --     7 C    1.185     4 C    1.153
     9  17 Cl   0.107
    10   1 H    0.911 --     1 N    0.827
    11   1 H    0.910 --     1 N    0.895
    12   1 H    0.909 --     1 N    0.895
    13   1 H    0.990 --     2 C    0.969
    14   1 H    0.990 --     2 C    0.967
    15   1 H    0.992 --     3 C    0.960
    16   1 H    0.993 --     3 C    0.964
    17   1 H    0.998 --     5 C    0.963
    18   1 H    0.999 --     6 C    0.965
    19   1 H    0.998 --     7 C    0.972
 ---------------------------------------------------------------------------

molecular dipole:
                 x           y           z       tot (Debye)
 q only:        1.626      -1.342      -5.011
   full:        1.621      -1.371      -4.314      12.222

           -------------------------------------------------
          | TOTAL ENERGY              -28.679995962645 Eh   |
          | GRADIENT NORM               0.000905727383 Eh/α |
          | HOMO-LUMO GAP               3.925913574961 eV   |
           -------------------------------------------------

 * finished run on 2023/01/24 at 14:57:43.744
