   * xtb version 6.5.1 (fef0646) compiled by 'conda@b96dff2e9fd6' on 2023-01-04
          program call               : xtb init.xyz --opt -c 0 -u 0 -P 16 --input xtb.inp

   ID    Z sym.   atoms
    1    7 N      1
    2    6 C      2-6
    3   17 Cl     7
    4    1 H      8-21

          :  Hamiltonian                  GFN2-xTB          :
 * total energy  :   -25.2913867 Eh     change       -0.7290524E-09 Eh
 * total energy  :   -25.2962150 Eh     change       -0.4828255E-02 Eh
 * total energy  :   -25.3020714 Eh     change       -0.5856413E-02 Eh
 * total energy  :   -25.3075265 Eh     change       -0.5455053E-02 Eh
 * total energy  :   -25.3104268 Eh     change       -0.2900378E-02 Eh
 * total energy  :   -25.3125921 Eh     change       -0.2165288E-02 Eh
 * total energy  :   -25.3136922 Eh     change       -0.1100104E-02 Eh
 * total energy  :   -25.3147718 Eh     change       -0.1079607E-02 Eh
 * total energy  :   -25.3152373 Eh     change       -0.4654367E-03 Eh
 * total energy  :   -25.3153891 Eh     change       -0.1517797E-03 Eh
 * total energy  :   -25.3164878 Eh     change       -0.6486457E-04 Eh
 * total energy  :   -25.3165049 Eh     change       -0.1712310E-04 Eh
 * total energy  :   -25.3165379 Eh     change       -0.3296416E-04 Eh
 * total energy  :   -25.3165559 Eh     change       -0.1800541E-04 Eh
 * total energy  :   -25.3165643 Eh     change       -0.8441152E-05 Eh
 * total energy  :   -25.3165747 Eh     change       -0.1044283E-04 Eh
 * total energy  :   -25.3165835 Eh     change       -0.8745035E-05 Eh
 * total energy  :   -25.3165894 Eh     change       -0.5927738E-05 Eh
 * total energy  :   -25.3165928 Eh     change       -0.3427662E-05 Eh
   *** GEOMETRY OPTIMIZATION CONVERGED AFTER 26 ITERATIONS ***

 final structure:
================
21
 xtb: 6.5.1 (fef0646)
N            1.31751301519086        0.06564428198114       -0.46626957906468
C            2.77192058017087        0.05722803370837       -0.31082042655170
C            3.19515264529632        1.11063859189179        0.70785370449262
C            4.70491594010435        1.10928951048127        0.93189927316207
C            5.12660954411888        2.14495579255029        1.97143460207923
C            6.63466910767618        2.14804993513921        2.18805355242765
Cl           0.00268193312487       -0.48779237490567        2.09470735174222
H            1.01344333164316       -0.63602336755232       -1.13192049509486
H            0.99604416539353        0.97570304752799       -0.77962030200579
H            0.63185493722885       -0.22835617753371        0.90190449247515
H            3.28847690234344        0.23735363952311       -1.26487534744964
H            3.05717953945105       -0.93481244228738        0.04674074667939
H            2.68190274655784        0.91169060107873        1.64888592803207
H            2.88119114210520        2.09707411860079        0.35780696755457
H            5.21429042490664        1.31777550340051       -0.01250233301698
H            5.01873618748508        0.11765403788430        1.26461079229614
H            4.62378229673294        1.92881628542080        2.91601331227372
H            4.80503363787598        3.13647022732084        1.64491565132803
H            6.97285595156360        1.17192222790216        2.52846167524419
H            6.91228827254162        2.88714742066494        2.93559055275331
H            7.15362769849085        2.38537110720171        1.26174988064322

          :  Hamiltonian                  GFN2-xTB          :
         :: total energy             -25.316592843065 Eh    ::
         :: gradient norm              0.000282533991 Eh/a0 ::
         :: HOMO-LUMO gap              9.167647586429 eV    ::
         :: SCC energy               -25.605191266648 Eh    ::
         :: -> dispersion             -0.011961047594 Eh    ::
         :: repulsion energy           0.288595668586 Eh    ::

    * Orbital Energies and Occupations

         #    Occupation            Energy/Eh            Energy/eV
      -------------------------------------------------------------
         1        2.0000           -1.0157999             -27.6413
       ...           ...                  ...                  ...
        11        2.0000           -0.5157099             -14.0332
        12        2.0000           -0.4940074             -13.4426
        13        2.0000           -0.4912513             -13.3676
        14        2.0000           -0.4874700             -13.2647
        15        2.0000           -0.4700560             -12.7909
        16        2.0000           -0.4614360             -12.5563
        17        2.0000           -0.4438276             -12.0772
        18        2.0000           -0.4426610             -12.0454
        19        2.0000           -0.4362653             -11.8714
        20        2.0000           -0.4272845             -11.6270
        21        2.0000           -0.3982944             -10.8381
        22        2.0000           -0.3929352             -10.6923
        23        2.0000           -0.3929011             -10.6914 (HOMO)
        24                         -0.0559963              -1.5237 (LUMO)
        25                          0.0110076               0.2995
        26                          0.0682475               1.8571
        27                          0.0686067               1.8669
        28                          0.0700187               1.9053
        29                          0.0742897               2.0215
        30                          0.0744720               2.0265
        31                          0.0950879               2.5875
        32                          0.1074969               2.9251
        33                          0.1122107               3.0534
        34                          0.1304045               3.5485
       ...                                ...                  ...
        47                          0.3080174               8.3816
      -------------------------------------------------------------
                  HL-Gap            0.3369048 Eh            9.1676 eV

     #   Z          covCN         q      C6AA      α(0)
     1   7 N        2.696    -0.306    27.861     7.839
     2   6 C        3.732     0.008    20.540     6.469
     3   6 C        3.804    -0.074    21.907     6.663
     4   6 C        3.803    -0.060    21.661     6.626
     5   6 C        3.801    -0.055    21.555     6.610
     6   6 C        3.752    -0.104    22.542     6.771
     7  17 Cl       0.837    -0.487   115.194    16.419
     8   1 H        0.860     0.166     1.299     1.785
     9   1 H        0.860     0.167     1.290     1.779
    10   1 H        0.902     0.332     0.623     1.235
    11   1 H        0.923     0.024     2.678     2.559
    12   1 H        0.924     0.052     2.300     2.372
    13   1 H        0.925     0.061     2.182     2.310
    14   1 H        0.924     0.037     2.490     2.468
    15   1 H        0.924     0.031     2.572     2.508
    16   1 H        0.924     0.036     2.505     2.475
    17   1 H        0.924     0.036     2.504     2.475
    18   1 H        0.924     0.031     2.571     2.507
    19   1 H        0.925     0.036     2.510     2.477
    20   1 H        0.925     0.036     2.503     2.474
    21   1 H        0.925     0.034     2.535     2.490

Wiberg/Mayer (AO) data.
largest (>0.10) Wiberg bond orders for each atom

     #   Z sym  total        # sym  WBO       # sym  WBO       # sym  WBO
 ---------------------------------------------------------------------------
     1   7 N    3.240 --     2 C    1.004     8 H    0.959     9 H    0.958
                            10 H    0.208
     2   6 C    3.973 --     3 C    1.006     1 N    1.004    12 H    0.974
                            11 H    0.973
     3   6 C    3.993 --     4 C    1.006     2 C    1.006    14 H    0.976
                            13 H    0.973
     4   6 C    3.997 --     5 C    1.008     3 C    1.006    15 H    0.977
                            16 H    0.977
     5   6 C    3.997 --     6 C    1.019     4 C    1.008    18 H    0.978
                            17 H    0.978
     6   6 C    3.997 --     5 C    1.019    21 H    0.988    19 H    0.988
                            20 H    0.987
     7  17 Cl   0.766 --    10 H    0.678
     8   1 H    0.972 --     1 N    0.959
     9   1 H    0.972 --     1 N    0.958
    10   1 H    0.890 --     7 Cl   0.678     1 N    0.208
    11   1 H    0.999 --     2 C    0.973
    12   1 H    0.997 --     2 C    0.974
    13   1 H    0.996 --     3 C    0.973
    14   1 H    0.999 --     3 C    0.976
    15   1 H    0.999 --     4 C    0.977
    16   1 H    0.999 --     4 C    0.977
    17   1 H    0.999 --     5 C    0.978
    18   1 H    0.999 --     5 C    0.978
    19   1 H    0.999 --     6 C    0.988
    20   1 H    0.998 --     6 C    0.987
    21   1 H    0.999 --     6 C    0.988
 ---------------------------------------------------------------------------

molecular dipole:
                 x           y           z       tot (Debye)
 q only:        1.084       0.452      -1.542
   full:        0.899       0.410      -1.566       4.708

           -------------------------------------------------
          | TOTAL ENERGY              -25.316592843065 Eh   |
          | GRADIENT NORM               0.000282533991 Eh/α |
          | HOMO-LUMO GAP               9.167647586429 eV   |
           -------------------------------------------------

 * finished run on 2023/01/23 at 20:06:50.847
