   * xtb version 6.5.1 (fef0646) compiled by 'conda@b96dff2e9fd6' on 2023-01-04
          program call               : xtb init.xyz --opt -c 0 -u 0 -P 16 --alpb water

   ID    Z sym.   atoms
    1    7 N      1
    2    6 C      2-5
    3    8 O      6
    4   17 Cl     7
    5    1 H      8-19

      * Solvation model:               ALPB
        Solvent                        water
        Solvent mass                       1.8000E+01 g/mol
          :  Hamiltonian                  GFN2-xTB          :
 * total energy  :   -26.2470251 Eh     change       -0.2669402E-09 Eh
 * total energy  :   -26.2518077 Eh     change       -0.4782588E-02 Eh
 * total energy  :   -26.2529508 Eh     change       -0.1143066E-02 Eh
 * total energy  :   -26.2533618 Eh     change       -0.4109988E-03 Eh
 * total energy  :   -26.2537978 Eh     change       -0.4359931E-03 Eh
 * total energy  :   -26.2546886 Eh     change       -0.8908352E-03 Eh
 * total energy  :   -26.2554368 Eh     change       -0.7481928E-03 Eh
 * total energy  :   -26.2562474 Eh     change       -0.8106403E-03 Eh
 * total energy  :   -26.2567981 Eh     change       -0.5506840E-03 Eh
 * total energy  :   -26.2571406 Eh     change       -0.3425254E-03 Eh
 * total energy  :   -26.2579080 Eh     change       -0.1756880E-04 Eh
 * total energy  :   -26.2579375 Eh     change       -0.2952166E-04 Eh
 * total energy  :   -26.2579631 Eh     change       -0.2557503E-04 Eh
 * total energy  :   -26.2579818 Eh     change       -0.1866898E-04 Eh
 * total energy  :   -26.2580080 Eh     change       -0.2628507E-04 Eh
 * total energy  :   -26.2580185 Eh     change       -0.1041448E-04 Eh
 * total energy  :   -26.2580264 Eh     change       -0.7957967E-05 Eh
 * total energy  :   -26.2580319 Eh     change       -0.5525606E-05 Eh
 * total energy  :   -26.2580340 Eh     change       -0.2051943E-05 Eh
   *** GEOMETRY OPTIMIZATION CONVERGED AFTER 27 ITERATIONS ***

 final structure:
================
19
 xtb: 6.5.1 (fef0646)
N            1.10279527814882        0.02086261009259        0.30671861713599
C            2.56539310778852       -0.11122108519324        0.15253584537559
C            3.02810825756693        0.64544288110305       -1.08637968151601
C            4.52853621351711        0.47900741875319       -1.31154696545022
C            4.98322081761620        1.19816974363430       -2.58219468689734
O            6.35941628693066        1.02587443498346       -2.85154243644289
Cl          -0.29502888729394       -0.90373633438536       -2.25171905593178
H            0.75350007957905       -0.53583307959115        1.08977189558144
H            0.62118645482502       -0.31567850458126       -0.56622942669710
H            0.83682986004026        1.00036312766289        0.43270667031199
H            2.80836862148544       -1.16721965852219        0.03901541216926
H            3.06260462101875        0.27764395834715        1.04211748995108
H            2.79979159616429        1.70723333457468       -0.98494340300171
H            2.47996857790964        0.26765338028983       -1.95126394082130
H            4.77916649608437       -0.57871779515703       -1.40666128831582
H            5.07452988564096        0.88284894935688       -0.45629430889108
H            4.74234068289994        2.26836419632619       -2.51948667274527
H            4.46420679569744        0.78543746268367       -3.45129498992477
H            6.87134525437985        1.38112495962287       -2.11115907389188

          :  Hamiltonian                  GFN2-xTB          :
         :: total energy             -26.258033989009 Eh    ::
         :: gradient norm              0.000281852344 Eh/a0 ::
         :: HOMO-LUMO gap             10.074456074087 eV    ::
         :: SCC energy               -26.511292968169 Eh    ::
         :: -> dispersion             -0.010074327336 Eh    ::
         :: -> Gsolv                  -0.083387906390 Eh    ::
         :: repulsion energy           0.253241286975 Eh    ::

    * Orbital Energies and Occupations

         #    Occupation            Energy/Eh            Energy/eV
      -------------------------------------------------------------
         1        2.0000           -1.0064820             -27.3878
       ...           ...                  ...                  ...
        11        2.0000           -0.5368930             -14.6096
        12        2.0000           -0.5186106             -14.1121
        13        2.0000           -0.5087107             -13.8427
        14        2.0000           -0.4980284             -13.5520
        15        2.0000           -0.4709849             -12.8162
        16        2.0000           -0.4613544             -12.5541
        17        2.0000           -0.4513132             -12.2809
        18        2.0000           -0.4389483             -11.9444
        19        2.0000           -0.4250192             -11.5654
        20        2.0000           -0.4079297             -11.1003
        21        2.0000           -0.4029059             -10.9636
        22        2.0000           -0.4005484             -10.8995
        23        2.0000           -0.4002014             -10.8900 (HOMO)
        24                         -0.0299720              -0.8156 (LUMO)
        25                          0.0453345               1.2336
        26                          0.0777045               2.1144
        27                          0.0891681               2.4264
        28                          0.0982758               2.6742
        29                          0.1151831               3.1343
        30                          0.1171335               3.1874
        31                          0.1182672               3.2182
        32                          0.1194339               3.2500
        33                          0.1201621               3.2698
        34                          0.1353229               3.6823
       ...                                ...                  ...
        45                          0.3133009               8.5254
      -------------------------------------------------------------
                  HL-Gap            0.3702294 Eh           10.0745 eV

     #   Z          covCN         q      C6AA      α(0)
     1   7 N        3.484    -0.170    24.676     7.378
     2   6 C        3.733    -0.027    21.144     6.563
     3   6 C        3.804    -0.080    22.022     6.681
     4   6 C        3.801    -0.081    22.047     6.685
     5   6 C        3.675     0.079    19.482     6.325
     6   8 O        1.654    -0.525    23.438     6.535
     7  17 Cl       0.049    -0.948   124.895    17.008
     8   1 H        0.859     0.306     0.697     1.308
     9   1 H        0.905     0.294     0.728     1.335
    10   1 H        0.859     0.298     0.720     1.329
    11   1 H        0.925     0.099     1.794     2.095
    12   1 H        0.924     0.108     1.713     2.047
    13   1 H        0.924     0.063     2.169     2.303
    14   1 H        0.924     0.056     2.241     2.341
    15   1 H        0.924     0.052     2.291     2.367
    16   1 H        0.924     0.057     2.231     2.336
    17   1 H        0.923     0.025     2.665     2.553
    18   1 H        0.924     0.036     2.497     2.471
    19   1 H        0.805     0.358     0.570     1.186

Wiberg/Mayer (AO) data.
largest (>0.10) Wiberg bond orders for each atom

     #   Z sym  total        # sym  WBO       # sym  WBO       # sym  WBO
 ---------------------------------------------------------------------------
     1   7 N    3.644 --     2 C    0.970    10 H    0.896     8 H    0.893
                             9 H    0.833
     2   6 C    3.931 --     3 C    1.010     1 N    0.970    11 H    0.968
                            12 H    0.967
     3   6 C    3.992 --     2 C    1.010     4 C    1.005    13 H    0.973
                            14 H    0.973
     4   6 C    3.994 --     3 C    1.005     5 C    0.998    15 H    0.976
                            16 H    0.974
     5   6 C    3.950 --     4 C    0.998     6 O    0.993    18 H    0.974
                            17 H    0.971
     6   8 O    1.906 --     5 C    0.993    19 H    0.858
     7  17 Cl   0.102
     8   1 H    0.906 --     1 N    0.893
     9   1 H    0.914 --     1 N    0.833
    10   1 H    0.911 --     1 N    0.896
    11   1 H    0.990 --     2 C    0.968
    12   1 H    0.988 --     2 C    0.967
    13   1 H    0.996 --     3 C    0.973
    14   1 H    0.997 --     3 C    0.973
    15   1 H    0.997 --     4 C    0.976
    16   1 H    0.997 --     4 C    0.974
    17   1 H    0.999 --     5 C    0.971
    18   1 H    0.999 --     5 C    0.974
    19   1 H    0.872 --     6 O    0.858
 ---------------------------------------------------------------------------

molecular dipole:
                 x           y           z       tot (Debye)
 q only:        2.521       1.887       5.217
   full:        2.002       1.764       4.745      13.837

           -------------------------------------------------
          | TOTAL ENERGY              -26.258033989009 Eh   |
          | GRADIENT NORM               0.000281852344 Eh/α |
          | HOMO-LUMO GAP              10.074456074087 eV   |
           -------------------------------------------------

 * finished run on 2023/01/24 at 16:45:04.286
