   * xtb version 6.5.1 (fef0646) compiled by 'conda@b96dff2e9fd6' on 2023-01-04
          program call               : xtb init.xyz --opt -c 0 -u 0 -P 16 --alpb water

   ID    Z sym.   atoms
    1    7 N      1, 5
    2    6 C      2-4
    3   17 Cl     6
    4    1 H      7-13

      * Solvation model:               ALPB
        Solvent                        water
        Solvent mass                       1.8000E+01 g/mol
          :  Hamiltonian                  GFN2-xTB          :
 * total energy  :   -20.3514797 Eh     change       -0.1718767E-09 Eh
 * total energy  :   -20.3831333 Eh     change       -0.3165361E-01 Eh
 * total energy  :   -20.3853964 Eh     change       -0.2263098E-02 Eh
 * total energy  :   -20.3851278 Eh     change        0.2686140E-03 Eh
 * total energy  :   -20.3861886 Eh     change       -0.1060799E-02 Eh
 * total energy  :   -20.3863894 Eh     change       -0.2008144E-03 Eh
 * total energy  :   -20.3866585 Eh     change       -0.2690959E-03 Eh
 * total energy  :   -20.3868859 Eh     change       -0.2273680E-03 Eh
 * total energy  :   -20.3869885 Eh     change       -0.1025860E-03 Eh
 * total energy  :   -20.3870674 Eh     change       -0.7889500E-04 Eh
 * total energy  :   -20.3870917 Eh     change       -0.2438625E-04 Eh
 * total energy  :   -20.3871212 Eh     change       -0.2946351E-04 Eh
 * total energy  :   -20.3871335 Eh     change       -0.1232686E-04 Eh
 * total energy  :   -20.3871387 Eh     change       -0.5121817E-05 Eh
 * total energy  :   -20.3871496 Eh     change       -0.1093796E-04 Eh
 * total energy  :   -20.3871514 Eh     change       -0.1818312E-05 Eh
   *** GEOMETRY OPTIMIZATION CONVERGED AFTER 16 ITERATIONS ***

 final structure:
================
13
 xtb: 6.5.1 (fef0646)
N            0.91888178363062       -0.27050024125315       -0.08836106522499
C            2.39311898957902       -0.23527390662764       -0.06965575217658
C            2.85459534991389        0.31494058570632        1.28241171093077
C            4.25759820817744        0.61134373300075        1.29546273568766
N            5.37965735237537        0.84197563920721        1.30849175337873
Cl           0.14028245902269        2.53762497834476        0.80071102330713
H            0.56100874108546       -0.51958927192201       -1.01358234595746
H            0.55547908078308        0.68828110985557        0.16057772967641
H            0.55309021972696       -0.92276855788473        0.61038830868265
H            2.73873857759435        0.43003891129877       -0.86120049065457
H            2.79737590952116       -1.23466562105923       -0.23655482656645
H            2.65057239690122       -0.38935640707532        2.09127088370005
H            2.31081093168880        1.24445904840900        1.48245033521638

          :  Hamiltonian                  GFN2-xTB          :
         :: total energy             -20.387151415334 Eh    ::
         :: gradient norm              0.000473035508 Eh/a0 ::
         :: HOMO-LUMO gap              5.267985350672 eV    ::
         :: SCC energy               -20.650082060673 Eh    ::
         :: -> dispersion             -0.006844243519 Eh    ::
         :: -> Gsolv                  -0.085552301592 Eh    ::
         :: repulsion energy           0.262913911910 Eh    ::

    * Orbital Energies and Occupations

         #    Occupation            Energy/Eh            Energy/eV
      -------------------------------------------------------------
         1        2.0000           -1.0128747             -27.5617
       ...           ...                  ...                  ...
         6        2.0000           -0.5799138             -15.7803
         7        2.0000           -0.5762983             -15.6819
         8        2.0000           -0.5511316             -14.9971
         9        2.0000           -0.5269859             -14.3400
        10        2.0000           -0.5179979             -14.0954
        11        2.0000           -0.4998079             -13.6005
        12        2.0000           -0.4783915             -13.0177
        13        2.0000           -0.4624140             -12.5829
        14        2.0000           -0.4467595             -12.1569
        15        2.0000           -0.4282353             -11.6529
        16        2.0000           -0.4072614             -11.0821
        17        2.0000           -0.4047797             -11.0146
        18        2.0000           -0.4040358             -10.9944 (HOMO)
        19                         -0.2104409              -5.7264 (LUMO)
        20                         -0.2021564              -5.5010
        21                         -0.0317194              -0.8631
        22                          0.0737036               2.0056
        23                          0.0880440               2.3958
        24                          0.1018702               2.7720
        25                          0.1097668               2.9869
        26                          0.1115109               3.0344
        27                          0.1123997               3.0586
        28                          0.1131173               3.0781
        29                          0.1313594               3.5745
       ...                                ...                  ...
        36                          1.1371723              30.9440
      -------------------------------------------------------------
                  HL-Gap            0.1935949 Eh            5.2680 eV

     #   Z          covCN         q      C6AA      α(0)
     1   7 N        3.484    -0.172    24.704     7.382
     2   6 C        3.736    -0.016    20.952     6.532
     3   6 C        3.806    -0.083    22.074     6.688
     4   6 C        1.897     0.131    27.905     8.532
     5   7 N        0.911    -0.300    27.732     7.616
     6  17 Cl       0.052    -0.941   124.633    16.991
     7   1 H        0.859     0.310     0.683     1.295
     8   1 H        0.908     0.302     0.703     1.311
     9   1 H        0.859     0.305     0.699     1.310
    10   1 H        0.924     0.106     1.732     2.058
    11   1 H        0.924     0.117     1.634     1.999
    12   1 H        0.924     0.119     1.624     1.993
    13   1 H        0.924     0.122     1.600     1.978

Wiberg/Mayer (AO) data.
largest (>0.10) Wiberg bond orders for each atom

     #   Z sym  total        # sym  WBO       # sym  WBO       # sym  WBO
 ---------------------------------------------------------------------------
     1   7 N    3.640 --     2 C    0.979     9 H    0.893     7 H    0.890
                             8 H    0.825
     2   6 C    3.935 --     3 C    0.981     1 N    0.979    10 H    0.968
                            11 H    0.965
     3   6 C    3.986 --     4 C    1.070     2 C    0.981    12 H    0.931
                            13 H    0.919
     4   6 C    3.940 --     5 N    2.822     3 C    1.070
     5   7 N    2.990 --     4 C    2.822
     6  17 Cl   0.114
     7   1 H    0.903 --     1 N    0.890
     8   1 H    0.909 --     1 N    0.825
     9   1 H    0.907 --     1 N    0.893
    10   1 H    0.989 --     2 C    0.968
    11   1 H    0.986 --     2 C    0.965
    12   1 H    0.986 --     3 C    0.931
    13   1 H    0.985 --     3 C    0.919
 ---------------------------------------------------------------------------

molecular dipole:
                 x           y           z       tot (Debye)
 q only:        0.193      -5.226      -1.581
   full:       -0.586      -4.553      -1.395      12.196

           -------------------------------------------------
          | TOTAL ENERGY              -20.387151415334 Eh   |
          | GRADIENT NORM               0.000473035508 Eh/α |
          | HOMO-LUMO GAP               5.267985350672 eV   |
           -------------------------------------------------

 * finished run on 2023/01/24 at 14:56:01.817
