   * xtb version 6.5.1 (fef0646) compiled by 'conda@b96dff2e9fd6' on 2023-01-04
          program call               : xtb init.xyz --opt -c 1 -u 0 -P 16 --input xtb.inp

   ID    Z sym.   atoms
    1    7 N      1
    2    6 C      2-5
    3    1 H      6-17

          :  Hamiltonian                  GFN2-xTB          :
 * total energy  :   -17.1712311 Eh     change       -0.8071765E-11 Eh
 * total energy  :   -17.1725464 Eh     change       -0.1315365E-02 Eh
 * total energy  :   -17.1727456 Eh     change       -0.1991708E-03 Eh
 * total energy  :   -17.1727958 Eh     change       -0.5019839E-04 Eh
 * total energy  :   -17.1728277 Eh     change       -0.3191163E-04 Eh
 * total energy  :   -17.1728552 Eh     change       -0.2747325E-04 Eh
 * total energy  :   -17.1728823 Eh     change       -0.2713054E-04 Eh
 * total energy  :   -17.1728889 Eh     change       -0.6629544E-05 Eh
 * total energy  :   -17.1728909 Eh     change       -0.1990350E-05 Eh
   *** GEOMETRY OPTIMIZATION CONVERGED AFTER 9 ITERATIONS ***

 final structure:
================
17
 xtb: 6.5.1 (fef0646)
N            0.92385860879895        0.08222546059742        0.11150314188031
C            2.41815611598926        0.04028201241861        0.07818183083407
C            2.91209908114668       -1.10354859849603       -0.81067238915789
C            2.41336072216060       -0.93596733990099       -2.24507260323023
C            4.43873782556913       -1.12121880944342       -0.77113035728616
H            0.57688729558883        0.88323553456336        0.65218699466906
H            0.55680175221952       -0.78447919663656        0.52518680296822
H            0.58283002857046        0.14847110476922       -0.85891791302110
H            2.78781300127159       -0.08018979001939        1.09709664658904
H            2.77876974525441        0.99301772763204       -0.31355921355965
H            2.54392415878229       -2.05305388486209       -0.40817313421758
H            2.67502397716469        0.04557958225317       -2.63373966759575
H            1.33850867250183       -1.08755113308471       -2.33997137885641
H            2.88961805747696       -1.67563875749218       -2.88160240672884
H            4.84429332200640       -0.20439669649898       -1.18991200401111
H            4.81679379978535       -1.95566194452036       -1.35293258362039
H            4.80178383571304       -1.22862527127914        0.24710823434442

          :  Hamiltonian                  GFN2-xTB          :
         :: total energy             -17.172890921464 Eh    ::
         :: gradient norm              0.000298997240 Eh/a0 ::
         :: HOMO-LUMO gap              8.681889644294 eV    ::
         :: SCC energy               -17.424216495110 Eh    ::
         :: -> dispersion             -0.007747411606 Eh    ::
         :: repulsion energy           0.251303525748 Eh    ::

    * Orbital Energies and Occupations

         #    Occupation            Energy/Eh            Energy/eV
      -------------------------------------------------------------
         1        2.0000           -0.8946080             -24.3435
       ...           ...                  ...                  ...
         4        2.0000           -0.8009395             -21.7947
         5        2.0000           -0.7813209             -21.2608
         6        2.0000           -0.7464543             -20.3121
         7        2.0000           -0.7249483             -19.7268
         8        2.0000           -0.7109928             -19.3471
         9        2.0000           -0.6854748             -18.6527
        10        2.0000           -0.6596274             -17.9494
        11        2.0000           -0.6420360             -17.4707
        12        2.0000           -0.6210551             -16.8998
        13        2.0000           -0.6033791             -16.4188
        14        2.0000           -0.5958540             -16.2140
        15        2.0000           -0.5867972             -15.9676
        16        2.0000           -0.5813844             -15.8203 (HOMO)
        17                         -0.2623308              -7.1384 (LUMO)
        18                         -0.1613874              -4.3916
        19                         -0.1073648              -2.9215
        20                         -0.1001700              -2.7258
        21                         -0.0685308              -1.8648
        22                         -0.0633510              -1.7239
        23                         -0.0175825              -0.4784
        24                         -0.0156237              -0.4251
        25                          0.0170525               0.4640
        26                          0.0515411               1.4025
        27                          0.0657129               1.7881
       ...                                ...                  ...
        32                          0.1463187               3.9815
      -------------------------------------------------------------
                  HL-Gap            0.3190536 Eh            8.6819 eV

     #   Z          covCN         q      C6AA      α(0)
     1   7 N        3.483    -0.129    23.797     7.245
     2   6 C        3.736    -0.040    21.375     6.598
     3   6 C        3.850    -0.021    20.922     6.506
     4   6 C        3.755    -0.133    23.120     6.856
     5   6 C        3.758    -0.128    23.008     6.839
     6   1 H        0.859     0.268     0.817     1.416
     7   1 H        0.859     0.269     0.813     1.413
     8   1 H        0.859     0.277     0.788     1.390
     9   1 H        0.924     0.104     1.751     2.070
    10   1 H        0.924     0.107     1.721     2.051
    11   1 H        0.924     0.057     2.240     2.341
    12   1 H        0.925     0.058     2.219     2.329
    13   1 H        0.925     0.035     2.520     2.482
    14   1 H        0.925     0.082     1.958     2.188
    15   1 H        0.925     0.062     2.179     2.308
    16   1 H        0.925     0.076     2.016     2.220
    17   1 H        0.925     0.058     2.224     2.332

Wiberg/Mayer (AO) data.
largest (>0.10) Wiberg bond orders for each atom

     #   Z sym  total        # sym  WBO       # sym  WBO       # sym  WBO
 ---------------------------------------------------------------------------
     1   7 N    3.675 --     2 C    0.923     6 H    0.914     7 H    0.912
                             8 H    0.896
     2   6 C    3.884 --     3 C    0.991     9 H    0.968    10 H    0.965
                             1 N    0.923
     3   6 C    3.983 --     4 C    1.008     5 C    1.001     2 C    0.991
                            11 H    0.965
     4   6 C    3.989 --     3 C    1.008    12 H    0.984    14 H    0.978
                            13 H    0.978
     5   6 C    3.985 --     3 C    1.001    15 H    0.984    17 H    0.983
                            16 H    0.980
     6   1 H    0.928 --     1 N    0.914
     7   1 H    0.928 --     1 N    0.912
     8   1 H    0.924 --     1 N    0.896
     9   1 H    0.989 --     2 C    0.968
    10   1 H    0.989 --     2 C    0.965
    11   1 H    0.997 --     3 C    0.965
    12   1 H    0.997 --     4 C    0.984
    13   1 H    0.999 --     4 C    0.978
    14   1 H    0.993 --     4 C    0.978
    15   1 H    0.996 --     5 C    0.984
    16   1 H    0.994 --     5 C    0.980
    17   1 H    0.997 --     5 C    0.983
 ---------------------------------------------------------------------------

molecular dipole:
                 x           y           z       tot (Debye)
 q only:        2.669      -0.146      -0.190
   full:        2.374      -0.085      -0.112       6.045

           -------------------------------------------------
          | TOTAL ENERGY              -17.172890921464 Eh   |
          | GRADIENT NORM               0.000298997240 Eh/α |
          | HOMO-LUMO GAP               8.681889644294 eV   |
           -------------------------------------------------

 * finished run on 2023/01/23 at 18:46:31.064
