   * xtb version 6.5.1 (fef0646) compiled by 'conda@b96dff2e9fd6' on 2023-01-04
          program call               : xtb init.xyz --opt -c 0 -u 0 -P 16 --alpb water

   ID    Z sym.   atoms
    1    7 N      1
    2    6 C      2-11
    3   16 S      12, 13
    4   17 Cl     14
    5    1 H      15-26

      * Solvation model:               ALPB
        Solvent                        water
        Solvent mass                       1.8000E+01 g/mol
          :  Hamiltonian                  GFN2-xTB          :
 * total energy  :   -41.4989791 Eh     change       -0.5642349E-09 Eh
 * total energy  :   -41.5052950 Eh     change       -0.6315933E-02 Eh
 * total energy  :   -41.5072863 Eh     change       -0.1991293E-02 Eh
 * total energy  :   -41.5081944 Eh     change       -0.9080294E-03 Eh
 * total energy  :   -41.5090083 Eh     change       -0.8139774E-03 Eh
 * total energy  :   -41.5096887 Eh     change       -0.6803599E-03 Eh
 * total energy  :   -41.5103221 Eh     change       -0.6334434E-03 Eh
 * total energy  :   -41.5107443 Eh     change       -0.4221733E-03 Eh
 * total energy  :   -41.5109896 Eh     change       -0.2452534E-03 Eh
 * total energy  :   -41.5112095 Eh     change       -0.2199083E-03 Eh
 * total energy  :   -41.5124635 Eh     change       -0.1930308E-04 Eh
 * total energy  :   -41.5124826 Eh     change       -0.1909044E-04 Eh
 * total energy  :   -41.5124929 Eh     change       -0.1030910E-04 Eh
 * total energy  :   -41.5125017 Eh     change       -0.8765847E-05 Eh
 * total energy  :   -41.5125183 Eh     change       -0.1655119E-04 Eh
 * total energy  :   -41.5125259 Eh     change       -0.7602956E-05 Eh
 * total energy  :   -41.5125320 Eh     change       -0.6147821E-05 Eh
 * total energy  :   -41.5125372 Eh     change       -0.5217433E-05 Eh
 * total energy  :   -41.5125405 Eh     change       -0.3242388E-05 Eh
   *** GEOMETRY OPTIMIZATION CONVERGED AFTER 40 ITERATIONS ***

 final structure:
================
26
 xtb: 6.5.1 (fef0646)
N            1.06734509414819       -1.11018156729180        0.10147089963078
C            2.54001185759384       -1.17836849271465        0.06037819777177
C            3.04170956750086       -0.60316918627022       -1.26498348188281
C            4.52816912748206       -0.54119652733470       -1.29695470430963
C            5.33821240532137        0.54982508446526       -1.37096206524815
C            6.71040875306616        0.23340975377660       -1.36911239041559
C            6.95607114645845       -1.11125326168340       -1.28803137889598
C            8.21148161120876       -1.79082250810739       -1.26048692579406
C            8.44991883638059       -3.13730734167832       -1.17643648621701
C            9.82160889284237       -3.45673893680257       -1.17726021902701
C           10.61712136443531       -2.35964526971404       -1.26084883172925
S            9.70773277787662       -0.90027934560360       -1.34178928200782
S            5.46549894814380       -2.00263184711482       -1.21652586963504
Cl           0.31187784221241        1.81341470870691       -0.40799175598006
H            0.70260602225374       -1.41915287172039        1.00508128505585
H            0.65510950760870       -1.66952023777831       -0.64946816546956
H            0.76396281947437       -0.11367630001941       -0.04903151524479
H            2.87273470804924       -2.21183587242756        0.16708541973939
H            2.94200991293078       -0.58274364687289        0.87947843449628
H            2.63808316826934        0.40346859701001       -1.38740083864188
H            2.68961945947720       -1.22208584846678       -2.09222280019644
H            4.96154946471899        1.55556523216425       -1.42740516718565
H            7.49842153075521        0.96383384565574       -1.42524338329680
H            7.66083468435909       -3.86490554924235       -1.11722710096779
H           10.19919757790746       -4.46106226771954       -1.11811566621376
H           11.68664291952660       -2.30544034321773       -1.28180620833280

          :  Hamiltonian                  GFN2-xTB          :
         :: total energy             -41.512540472267 Eh    ::
         :: gradient norm              0.000562025679 Eh/a0 ::
         :: HOMO-LUMO gap              2.601520295450 eV    ::
         :: SCC energy               -42.058431044275 Eh    ::
         :: -> dispersion             -0.026497248367 Eh    ::
         :: -> Gsolv                  -0.073471776349 Eh    ::
         :: repulsion energy           0.546065824897 Eh    ::

    * Orbital Energies and Occupations

         #    Occupation            Energy/Eh            Energy/eV
      -------------------------------------------------------------
         1        2.0000           -1.0067826             -27.3959
       ...           ...                  ...                  ...
        26        2.0000           -0.4615801             -12.5602
        27        2.0000           -0.4601084             -12.5202
        28        2.0000           -0.4530345             -12.3277
        29        2.0000           -0.4483616             -12.2005
        30        2.0000           -0.4428519             -12.0506
        31        2.0000           -0.4364495             -11.8764
        32        2.0000           -0.4151731             -11.2974
        33        2.0000           -0.4031844             -10.9712
        34        2.0000           -0.4005381             -10.8992
        35        2.0000           -0.4002560             -10.8915
        36        2.0000           -0.3978862             -10.8270
        37        2.0000           -0.3938458             -10.7171
        38        2.0000           -0.3649448              -9.9307 (HOMO)
        39                         -0.2693407              -7.3291 (LUMO)
        40                         -0.2164523              -5.8900
        41                         -0.2111931              -5.7469
        42                         -0.1975491              -5.3756
        43                         -0.1730705              -4.7095
        44                         -0.1456721              -3.9639
        45                         -0.1341918              -3.6515
        46                         -0.1021024              -2.7783
        47                         -0.0256363              -0.6976
        48                         -0.0086735              -0.2360
        49                          0.0065517               0.1783
       ...                                ...                  ...
        83                          0.7053721              19.1942
      -------------------------------------------------------------
                  HL-Gap            0.0956041 Eh            2.6015 eV

     #   Z          covCN         q      C6AA      α(0)
     1   7 N        3.484    -0.170    24.661     7.376
     2   6 C        3.734    -0.025    21.107     6.557
     3   6 C        3.828    -0.083    22.066     6.684
     4   6 C        2.987     0.027    27.402     8.587
     5   6 C        3.111    -0.059    29.293     8.867
     6   6 C        3.111    -0.056    29.242     8.859
     7   6 C        3.020     0.011    27.758     8.642
     8   6 C        3.025     0.019    27.562     8.612
     9   6 C        3.109    -0.058    29.290     8.867
    10   6 C        3.107    -0.048    29.056     8.832
    11   6 C        2.940    -0.025    28.622     8.774
    12  16 S        2.325    -0.062   143.621    20.170
    13  16 S        2.364    -0.041   142.754    20.109
    14  17 Cl       0.046    -0.947   124.884    17.008
    15   1 H        0.859     0.308     0.689     1.300
    16   1 H        0.859     0.302     0.708     1.318
    17   1 H        0.902     0.297     0.719     1.327
    18   1 H        0.924     0.115     1.657     2.013
    19   1 H        0.925     0.101     1.774     2.083
    20   1 H        0.924     0.079     1.993     2.208
    21   1 H        0.924     0.087     1.906     2.159
    22   1 H        0.926     0.038     2.477     2.461
    23   1 H        0.926     0.035     2.516     2.480
    24   1 H        0.926     0.054     2.274     2.358
    25   1 H        0.926     0.049     2.327     2.385
    26   1 H        0.927     0.054     2.271     2.357

Wiberg/Mayer (AO) data.
largest (>0.10) Wiberg bond orders for each atom

     #   Z sym  total        # sym  WBO       # sym  WBO       # sym  WBO
 ---------------------------------------------------------------------------
     1   7 N    3.643 --     2 C    0.974    16 H    0.894    15 H    0.891
                            17 H    0.832
     2   6 C    3.930 --     3 C    0.992     1 N    0.974    19 H    0.969
                            18 H    0.964
     3   6 C    3.988 --     4 C    1.027     2 C    0.992    20 H    0.962
                            21 H    0.956
     4   6 C    3.936 --     5 C    1.583    13 S    1.151     3 C    1.027
     5   6 C    3.986 --     4 C    1.583     6 C    1.293    22 H    0.964
     6   6 C    3.987 --     7 C    1.520     5 C    1.293    23 H    0.962
     7   6 C    3.953 --     6 C    1.520     8 C    1.152    13 S    1.118
     8   6 C    3.949 --     9 C    1.518     7 C    1.152    12 S    1.122
                            11 C    0.102
     9   6 C    3.983 --     8 C    1.518    10 C    1.292    24 H    0.961
    10   6 C    3.987 --    11 C    1.613     9 C    1.292    25 H    0.963
    11   6 C    3.929 --    10 C    1.613    12 S    1.184    26 H    0.969
                             8 C    0.102
    12  16 S    2.592 --    11 C    1.184     8 C    1.122
    13  16 S    2.572 --     4 C    1.151     7 C    1.118
    14  17 Cl   0.102
    15   1 H    0.904 --     1 N    0.891
    16   1 H    0.909 --     1 N    0.894
    17   1 H    0.912 --     1 N    0.832
    18   1 H    0.987 --     2 C    0.964
    19   1 H    0.990 --     2 C    0.969
    20   1 H    0.993 --     3 C    0.962
    21   1 H    0.990 --     3 C    0.956
    22   1 H    0.998 --     5 C    0.964
    23   1 H    0.999 --     6 C    0.962
    24   1 H    0.997 --     9 C    0.961
    25   1 H    0.997 --    10 C    0.963
    26   1 H    0.997 --    11 C    0.969
 ---------------------------------------------------------------------------

molecular dipole:
                 x           y           z       tot (Debye)
 q only:        0.976      -5.350       0.899
   full:        0.908      -4.491       0.757      11.805

           -------------------------------------------------
          | TOTAL ENERGY              -41.512540472267 Eh   |
          | GRADIENT NORM               0.000562025679 Eh/α |
          | HOMO-LUMO GAP               2.601520295450 eV   |
           -------------------------------------------------

 * finished run on 2023/01/24 at 15:44:05.127
