   * xtb version 6.5.1 (fef0646) compiled by 'conda@b96dff2e9fd6' on 2023-01-04
          program call               : xtb init.xyz --opt -c 0 -u 0 -P 16

   ID    Z sym.   atoms
    1    7 N      1
    2    6 C      2-7, 9, 10
    3    9 F      8
    4   17 Cl     11
    5    1 H      12-22

          :  Hamiltonian                  GFN2-xTB          :
 * total energy  :   -34.9112393 Eh     change       -0.9542660E-09 Eh
 * total energy  :   -34.9188445 Eh     change       -0.7605163E-02 Eh
 * total energy  :   -34.9233371 Eh     change       -0.4492625E-02 Eh
 * total energy  :   -34.9263900 Eh     change       -0.3052883E-02 Eh
 * total energy  :   -34.9293403 Eh     change       -0.2950287E-02 Eh
 * total energy  :   -34.9311816 Eh     change       -0.1841321E-02 Eh
 * total energy  :   -34.9315811 Eh     change       -0.3995077E-03 Eh
 * total energy  :   -34.9319280 Eh     change       -0.3468315E-03 Eh
 * total energy  :   -34.9320149 Eh     change       -0.8695553E-04 Eh
 * total energy  :   -34.9320932 Eh     change       -0.7828871E-04 Eh
 * total energy  :   -34.9323197 Eh     change       -0.1343236E-04 Eh
 * total energy  :   -34.9323373 Eh     change       -0.1762192E-04 Eh
 * total energy  :   -34.9323632 Eh     change       -0.2594707E-04 Eh
 * total energy  :   -34.9323705 Eh     change       -0.7276223E-05 Eh
 * total energy  :   -34.9323825 Eh     change       -0.1201845E-04 Eh
 * total energy  :   -34.9323899 Eh     change       -0.7374888E-05 Eh
 * total energy  :   -34.9323950 Eh     change       -0.5060266E-05 Eh
 * total energy  :   -34.9324001 Eh     change       -0.5153481E-05 Eh
 * total energy  :   -34.9324044 Eh     change       -0.4267970E-05 Eh
   *** GEOMETRY OPTIMIZATION CONVERGED AFTER 23 ITERATIONS ***

 final structure:
================
22
 xtb: 6.5.1 (fef0646)
N            1.03987803711176       -0.54601243972058        0.05005443382198
C            2.48968576661480       -0.63680424954815        0.20947588772625
C            2.95146660717672        0.30712486331967        1.32404867859178
C            4.45135740735356        0.34281641443973        1.39246455509278
C            5.16706219895468        1.15720390055462        0.52208059814619
C            6.54906897538342        1.17868656989491        0.54347354132531
C            7.21103548627631        0.37097602355723        1.45023034895759
F            8.56098238714235        0.38451043788052        1.47912893929241
C            6.52884898410398       -0.44899534332102        2.32884000698385
C            5.14572559337239       -0.45751562506259        2.29017091543589
Cl           0.34285347358191        2.24240488343093       -0.56197316976210
H            0.71448429738617       -1.13514674663606       -0.70867860631170
H            0.65801262279012        0.93889668597589       -0.28016505557349
H            0.56468282733898       -0.81882101857095        0.90442763709195
H            2.94593380825468       -0.33233865298091       -0.73477614555002
H            2.82305199327669       -1.65968428805222        0.43446213016190
H            2.53958467142097       -0.03079430910881        2.27624999450711
H            2.56120885303675        1.30191000725452        1.11216664171436
H            4.63400161889114        1.78548077892389       -0.17537604709457
H            7.11349572235447        1.80894321447291       -0.12515945920266
H            7.07664788615497       -1.06312967739159        3.02573349633257
H            4.60160078202224       -1.09201142931195        2.97428067831261

          :  Hamiltonian                  GFN2-xTB          :
         :: total energy             -34.932404392194 Eh    ::
         :: gradient norm              0.000819683988 Eh/a0 ::
         :: HOMO-LUMO gap              4.287377653843 eV    ::
         :: SCC energy               -35.368746864519 Eh    ::
         :: -> dispersion             -0.017580970299 Eh    ::
         :: repulsion energy           0.436328592918 Eh    ::

    * Orbital Energies and Occupations

         #    Occupation            Energy/Eh            Energy/eV
      -------------------------------------------------------------
         1        2.0000           -1.0229640             -27.8363
       ...           ...                  ...                  ...
        19        2.0000           -0.4981633             -13.5557
        20        2.0000           -0.4937536             -13.4357
        21        2.0000           -0.4921382             -13.3918
        22        2.0000           -0.4802651             -13.0687
        23        2.0000           -0.4708244             -12.8118
        24        2.0000           -0.4589465             -12.4886
        25        2.0000           -0.4538791             -12.3507
        26        2.0000           -0.4349784             -11.8364
        27        2.0000           -0.4236087             -11.5270
        28        2.0000           -0.4097874             -11.1509
        29        2.0000           -0.4040437             -10.9946
        30        2.0000           -0.3999373             -10.8828
        31        2.0000           -0.3996714             -10.8756 (HOMO)
        32                         -0.2421131              -6.5882 (LUMO)
        33                         -0.2369832              -6.4486
        34                         -0.1110025              -3.0205
        35                         -0.0620743              -1.6891
        36                          0.0097844               0.2662
        37                          0.0525761               1.4307
        38                          0.0607381               1.6528
        39                          0.0613485               1.6694
        40                          0.0667297               1.8158
        41                          0.0670178               1.8236
        42                          0.0859497               2.3388
       ...                                ...                  ...
        60                          0.6463817              17.5889
      -------------------------------------------------------------
                  HL-Gap            0.1575582 Eh            4.2874 eV

     #   Z          covCN         q      C6AA      α(0)
     1   7 N        2.687    -0.305    27.860     7.839
     2   6 C        3.733     0.011    20.483     6.460
     3   6 C        3.810    -0.081    22.041     6.683
     4   6 C        2.970     0.010    27.791     8.647
     5   6 C        2.930    -0.038    28.947     8.824
     6   6 C        2.916    -0.049    29.210     8.863
     7   6 C        2.788     0.167    24.388     8.089
     8   9 F        0.787    -0.228    11.530     4.011
     9   6 C        2.916    -0.050    29.242     8.867
    10   6 C        2.929    -0.038    28.957     8.825
    11  17 Cl       0.838    -0.482   115.036    16.408
    12   1 H        0.860     0.167     1.291     1.780
    13   1 H        0.894     0.333     0.619     1.232
    14   1 H        0.860     0.168     1.285     1.775
    15   1 H        0.924     0.055     2.258     2.350
    16   1 H        0.923     0.027     2.635     2.538
    17   1 H        0.924     0.047     2.360     2.402
    18   1 H        0.925     0.075     2.027     2.226
    19   1 H        0.926     0.053     2.284     2.363
    20   1 H        0.926     0.059     2.206     2.322
    21   1 H        0.926     0.057     2.230     2.335
    22   1 H        0.926     0.042     2.417     2.431

Wiberg/Mayer (AO) data.
largest (>0.10) Wiberg bond orders for each atom

     #   Z sym  total        # sym  WBO       # sym  WBO       # sym  WBO
 ---------------------------------------------------------------------------
     1   7 N    3.233 --     2 C    1.006    12 H    0.958    14 H    0.958
                            13 H    0.201
     2   6 C    3.974 --     1 N    1.006     3 C    0.989    15 H    0.974
                            16 H    0.973
     3   6 C    3.992 --     4 C    1.011     2 C    0.989    17 H    0.973
                            18 H    0.964
     4   6 C    3.989 --    10 C    1.416     5 C    1.407     3 C    1.011
     5   6 C    3.990 --     6 C    1.450     4 C    1.407    19 H    0.968
                             9 C    0.111
     6   6 C    3.990 --     5 C    1.450     7 C    1.393    20 H    0.967
                            10 C    0.109
     7   6 C    3.886 --     9 C    1.399     6 C    1.393     8 F    0.956
     8   9 F    1.085 --     7 C    0.956
     9   6 C    3.990 --    10 C    1.441     7 C    1.399    21 H    0.967
                             5 C    0.111
    10   6 C    3.991 --     9 C    1.441     4 C    1.416    22 H    0.969
                             6 C    0.109
    11  17 Cl   0.771 --    13 H    0.683
    12   1 H    0.971 --     1 N    0.958
    13   1 H    0.889 --    11 Cl   0.683     1 N    0.201
    14   1 H    0.972 --     1 N    0.958
    15   1 H    0.997 --     2 C    0.974
    16   1 H    0.999 --     2 C    0.973
    17   1 H    0.997 --     3 C    0.973
    18   1 H    0.994 --     3 C    0.964
    19   1 H    0.997 --     5 C    0.968
    20   1 H    0.996 --     6 C    0.967
    21   1 H    0.996 --     9 C    0.967
    22   1 H    0.998 --    10 C    0.969
 ---------------------------------------------------------------------------

molecular dipole:
                 x           y           z       tot (Debye)
 q only:       -0.355      -1.731       0.384
   full:       -0.555      -1.693       0.322       4.601

           -------------------------------------------------
          | TOTAL ENERGY              -34.932404392194 Eh   |
          | GRADIENT NORM               0.000819683988 Eh/α |
          | HOMO-LUMO GAP               4.287377653843 eV   |
           -------------------------------------------------

 * finished run on 2023/01/23 at 14:07:26.200
