   * xtb version 6.5.1 (fef0646) compiled by 'conda@b96dff2e9fd6' on 2023-01-04
          program call               : xtb init.xyz --opt -c 0 -u 0 -P 16

   ID    Z sym.   atoms
    1    7 N      1
    2    6 C      2-9
    3   17 Cl     10
    4    1 H      11-30

          :  Hamiltonian                  GFN2-xTB          :
 * total energy  :   -34.7890393 Eh     change       -0.1446296E-08 Eh
 * total energy  :   -34.7959640 Eh     change       -0.6924726E-02 Eh
 * total energy  :   -34.8003847 Eh     change       -0.4420714E-02 Eh
 * total energy  :   -34.8033299 Eh     change       -0.2945205E-02 Eh
 * total energy  :   -34.8058293 Eh     change       -0.2499398E-02 Eh
 * total energy  :   -34.8075951 Eh     change       -0.1765784E-02 Eh
 * total energy  :   -34.8080051 Eh     change       -0.4100234E-03 Eh
 * total energy  :   -34.8083384 Eh     change       -0.3332380E-03 Eh
 * total energy  :   -34.8084444 Eh     change       -0.1060371E-03 Eh
 * total energy  :   -34.8085578 Eh     change       -0.1133652E-03 Eh
 * total energy  :   -34.8087971 Eh     change       -0.1286659E-03 Eh
 * total energy  :   -34.8088777 Eh     change       -0.8054294E-04 Eh
 * total energy  :   -34.8089169 Eh     change       -0.3926651E-04 Eh
 * total energy  :   -34.8089374 Eh     change       -0.2047089E-04 Eh
 * total energy  :   -34.8089840 Eh     change       -0.4663459E-04 Eh
 * total energy  :   -34.8090119 Eh     change       -0.2786785E-04 Eh
 * total energy  :   -34.8090270 Eh     change       -0.1514926E-04 Eh
 * total energy  :   -34.8090329 Eh     change       -0.5810330E-05 Eh
 * total energy  :   -34.8090364 Eh     change       -0.3566647E-05 Eh
   *** GEOMETRY OPTIMIZATION CONVERGED AFTER 20 ITERATIONS ***

 final structure:
================
30
 xtb: 6.5.1 (fef0646)
N            0.87762844928129        0.57668157669722        2.12157517984945
C            2.31007444111674        0.51377242981161        2.41588729321208
C            2.99247192136984       -0.46079318371999        1.45958796876538
C            4.51759055950851       -0.37565862414205        1.50583188668704
C            5.11559918091294       -0.78874820532831        2.84954826666337
C            6.64200445758697       -0.81463801494370        2.80256435143589
C            7.25339351127896       -1.16036533484783        4.15811326837554
C            8.77905120496517       -1.19469571806294        4.10962416178741
C            9.38327132399877       -1.50504276641415        5.47365158722091
Cl           0.44554897364111        1.55617013950726       -0.60284546402350
H            0.39820806357672        1.20349083631249        2.75822217454642
H            0.45674549411264       -0.34419424543809        2.19028082956283
H            0.65912208751618        1.09571910575366        0.67665153395640
H            2.49599887149364        0.21579613980452        3.45620611494547
H            2.71714278685174        1.51665340642212        2.26747666422101
H            2.65619822769859       -0.22821213878302        0.44839967092482
H            2.67672888506916       -1.48028688407887        1.69380233499019
H            4.82557585408547        0.64541957480878        1.27228273879714
H            4.92184904288390       -1.02674175280350        0.72789061153779
H            4.74672521338222       -1.78062076227812        3.12176939722484
H            4.79943831969620       -0.08981985334475        3.62610587332996
H            7.00747510234615        0.16381409782569        2.48214925071091
H            6.96893901876715       -1.54695506234052        2.06076857167603
H            6.88158336455697       -2.13436211624326        4.48545432923521
H            6.93453607680063       -0.42051882463660        4.89649634357812
H            9.14980110792216       -0.22824945717217        3.76047993306710
H            9.09980004432472       -1.95087167911075        3.38953364775068
H            9.09743466118095       -0.74608857776779        6.19887267504691
H           10.46888168709693       -1.53171562598790        5.41511515958656
H            9.03518206697405       -2.47046847949603        5.83471364533677

          :  Hamiltonian                  GFN2-xTB          :
         :: total energy             -34.809036422121 Eh    ::
         :: gradient norm              0.000418293849 Eh/a0 ::
         :: HOMO-LUMO gap              9.165201405758 eV    ::
         :: SCC energy               -35.237311591470 Eh    ::
         :: -> dispersion             -0.018979885935 Eh    ::
         :: repulsion energy           0.428391390896 Eh    ::

    * Orbital Energies and Occupations

         #    Occupation            Energy/Eh            Energy/eV
      -------------------------------------------------------------
         1        2.0000           -1.0152249             -27.6257
       ...           ...                  ...                  ...
        20        2.0000           -0.4747497             -12.9186
        21        2.0000           -0.4653385             -12.6625
        22        2.0000           -0.4609055             -12.5419
        23        2.0000           -0.4531625             -12.3312
        24        2.0000           -0.4417884             -12.0217
        25        2.0000           -0.4409868             -11.9999
        26        2.0000           -0.4334134             -11.7938
        27        2.0000           -0.4286521             -11.6642
        28        2.0000           -0.4241808             -11.5425
        29        2.0000           -0.4230356             -11.5114
        30        2.0000           -0.3971566             -10.8072
        31        2.0000           -0.3923262             -10.6757
        32        2.0000           -0.3922635             -10.6740 (HOMO)
        33                         -0.0554486              -1.5088 (LUMO)
        34                          0.0120330               0.3274
        35                          0.0466419               1.2692
        36                          0.0692778               1.8851
        37                          0.0695666               1.8930
        38                          0.0751651               2.0453
        39                          0.0753054               2.0492
        40                          0.0844586               2.2982
        41                          0.0965938               2.6285
        42                          0.1054126               2.8684
        43                          0.1091361               2.9697
       ...                                ...                  ...
        65                          0.3155444               8.5864
      -------------------------------------------------------------
                  HL-Gap            0.3368150 Eh            9.1652 eV

     #   Z          covCN         q      C6AA      α(0)
     1   7 N        2.704    -0.305    27.850     7.838
     2   6 C        3.731     0.007    20.557     6.472
     3   6 C        3.803    -0.073    21.903     6.663
     4   6 C        3.803    -0.062    21.692     6.631
     5   6 C        3.802    -0.060    21.662     6.626
     6   6 C        3.803    -0.060    21.650     6.624
     7   6 C        3.803    -0.059    21.636     6.622
     8   6 C        3.801    -0.053    21.532     6.607
     9   6 C        3.752    -0.102    22.517     6.767
    10  17 Cl       0.837    -0.490   115.323    16.428
    11   1 H        0.860     0.166     1.298     1.784
    12   1 H        0.860     0.167     1.290     1.779
    13   1 H        0.909     0.331     0.624     1.236
    14   1 H        0.923     0.026     2.642     2.542
    15   1 H        0.924     0.054     2.276     2.359
    16   1 H        0.924     0.063     2.169     2.303
    17   1 H        0.924     0.036     2.498     2.472
    18   1 H        0.924     0.037     2.485     2.465
    19   1 H        0.924     0.040     2.454     2.450
    20   1 H        0.924     0.031     2.576     2.510
    21   1 H        0.924     0.029     2.603     2.523
    22   1 H        0.924     0.031     2.577     2.510
    23   1 H        0.924     0.031     2.578     2.511
    24   1 H        0.924     0.030     2.588     2.516
    25   1 H        0.924     0.030     2.592     2.518
    26   1 H        0.924     0.030     2.593     2.518
    27   1 H        0.924     0.029     2.595     2.519
    28   1 H        0.925     0.033     2.540     2.492
    29   1 H        0.925     0.034     2.535     2.490
    30   1 H        0.925     0.033     2.538     2.491

Wiberg/Mayer (AO) data.
largest (>0.10) Wiberg bond orders for each atom

     #   Z sym  total        # sym  WBO       # sym  WBO       # sym  WBO
 ---------------------------------------------------------------------------
     1   7 N    3.245 --     2 C    1.002    11 H    0.959    12 H    0.958
                            13 H    0.213
     2   6 C    3.972 --     3 C    1.007     1 N    1.002    15 H    0.974
                            14 H    0.972
     3   6 C    3.993 --     2 C    1.007     4 C    1.006    17 H    0.977
                            16 H    0.972
     4   6 C    3.996 --     5 C    1.008     3 C    1.006    18 H    0.977
                            19 H    0.976
     5   6 C    3.997 --     4 C    1.008     6 C    1.007    20 H    0.977
                            21 H    0.976
     6   6 C    3.997 --     7 C    1.007     5 C    1.007    23 H    0.977
                            22 H    0.977
     7   6 C    3.997 --     8 C    1.008     6 C    1.007    24 H    0.978
                            25 H    0.977
     8   6 C    3.997 --     9 C    1.019     7 C    1.008    27 H    0.979
                            26 H    0.979
     9   6 C    3.997 --     8 C    1.019    30 H    0.988    28 H    0.988
                            29 H    0.987
    10  17 Cl   0.763 --    13 H    0.672
    11   1 H    0.972 --     1 N    0.959
    12   1 H    0.972 --     1 N    0.958
    13   1 H    0.890 --    10 Cl   0.672     1 N    0.213
    14   1 H    0.999 --     2 C    0.972
    15   1 H    0.997 --     2 C    0.974
    16   1 H    0.996 --     3 C    0.972
    17   1 H    0.999 --     3 C    0.977
    18   1 H    0.999 --     4 C    0.977
    19   1 H    0.998 --     4 C    0.976
    20   1 H    0.999 --     5 C    0.977
    21   1 H    0.999 --     5 C    0.976
    22   1 H    0.999 --     6 C    0.977
    23   1 H    0.999 --     6 C    0.977
    24   1 H    0.999 --     7 C    0.978
    25   1 H    0.999 --     7 C    0.977
    26   1 H    0.999 --     8 C    0.979
    27   1 H    0.999 --     8 C    0.979
    28   1 H    0.999 --     9 C    0.988
    29   1 H    0.999 --     9 C    0.987
    30   1 H    0.999 --     9 C    0.988
 ---------------------------------------------------------------------------

molecular dipole:
                 x           y           z       tot (Debye)
 q only:        0.551      -0.731       1.770
   full:        0.373      -0.677       1.722       4.798

           -------------------------------------------------
          | TOTAL ENERGY              -34.809036422121 Eh   |
          | GRADIENT NORM               0.000418293849 Eh/α |
          | HOMO-LUMO GAP               9.165201405758 eV   |
           -------------------------------------------------

 * finished run on 2023/01/23 at 14:16:12.782
