   * xtb version 6.5.1 (fef0646) compiled by 'conda@b96dff2e9fd6' on 2023-01-04
          program call               : xtb init.xyz --opt -c 1 -u 0 -P 16 --input xtb.inp

   ID    Z sym.   atoms
    1    7 N      1
    2    6 C      2-17
    3    1 H      18-35

          :  Hamiltonian                  GFN2-xTB          :
 * total energy  :   -45.8875456 Eh     change       -0.8263612E-10 Eh
 * total energy  :   -45.8908892 Eh     change       -0.3343548E-02 Eh
 * total energy  :   -45.8917035 Eh     change       -0.8143237E-03 Eh
 * total energy  :   -45.8921999 Eh     change       -0.4963509E-03 Eh
 * total energy  :   -45.8928057 Eh     change       -0.6058473E-03 Eh
 * total energy  :   -45.8933585 Eh     change       -0.5527791E-03 Eh
 * total energy  :   -45.8939343 Eh     change       -0.5758199E-03 Eh
 * total energy  :   -45.8944656 Eh     change       -0.5313036E-03 Eh
 * total energy  :   -45.8948988 Eh     change       -0.4332287E-03 Eh
 * total energy  :   -45.8952681 Eh     change       -0.3692318E-03 Eh
 * total energy  :   -45.8967450 Eh     change       -0.2843043E-04 Eh
 * total energy  :   -45.8967547 Eh     change       -0.9655631E-05 Eh
 * total energy  :   -45.8967693 Eh     change       -0.1456486E-04 Eh
 * total energy  :   -45.8967745 Eh     change       -0.5241908E-05 Eh
 * total energy  :   -45.8967805 Eh     change       -0.6048365E-05 Eh
 * total energy  :   -45.8967865 Eh     change       -0.5943151E-05 Eh
 * total energy  :   -45.8967944 Eh     change       -0.7895480E-05 Eh
 * total energy  :   -45.8968019 Eh     change       -0.7500002E-05 Eh
 * total energy  :   -45.8968062 Eh     change       -0.4278133E-05 Eh
   *** GEOMETRY OPTIMIZATION CONVERGED AFTER 31 ITERATIONS ***

 final structure:
================
35
 xtb: 6.5.1 (fef0646)
N            3.14511356824215       -1.57095875964326       -2.37227779092998
C            2.44222882422032       -0.25675157438954       -2.44506430648334
C            2.88772132581404        0.57640268783345       -1.23974323875022
C            4.39132259177353        0.66669766121492       -1.25117642435178
C            5.04201093348029        1.68553177644868       -1.93962490602731
C            6.41746826089758        1.71775799220135       -2.02299221781065
C            7.20565219483397        0.71992068373958       -1.43390975978182
C            8.65095386265744        0.71004999704583       -1.48746997234778
C            9.43000039783894        1.73929458283232       -1.85885476804117
C           10.87766254731950        1.74674106527552       -1.89769353895603
C           11.65049565890269        0.58483767150719       -1.80747101109825
C           13.02860178141470        0.65159590353200       -1.84854670392487
C           13.66755317612487        1.87553107645193       -1.97572546844240
C           12.91662010099704        3.03629696766460       -2.07077507936719
C           11.53794050925944        2.97216023004429       -2.03885446298824
C            6.54460508292100       -0.30860133600512       -0.75421592555146
C            5.16412843606772       -0.33959115784762       -0.66318836950347
H            3.20769149414978       -2.04029575136035       -3.27995169463942
H            2.68253896365530       -2.19638935603103       -1.70373190424989
H            4.10964036772096       -1.33719903593812       -1.99273462148384
H            1.36348756800964       -0.40911515420981       -2.45927488773739
H            2.74455636004856        0.24250493505774       -3.36649931445046
H            2.53435324791200        0.11640331541996       -0.31547715759669
H            2.44367968160779        1.56762774313404       -1.31265774277561
H            4.45960658292334        2.46866534446756       -2.40179188997497
H            6.88918818485280        2.52503192298185       -2.55895817954862
H            9.10897305161619       -0.21081933042822       -1.15375215267297
H            8.97140616766212        2.68190042050826       -2.12916956441209
H           11.17102185122464       -0.37829805208128       -1.72112771316164
H           13.61107986278966       -0.25522175131604       -1.78270646169303
H           14.74530445353064        1.92289820928329       -2.00484281179827
H           13.40859870024130        3.99178420500541       -2.17285782101537
H           10.95733637304747        3.88085934214833       -2.11255543893101
H            7.12429488429295       -1.08186703973085       -0.27258217419783
H            4.70091295194834       -1.09270543481821       -0.03524452530745

          :  Hamiltonian                  GFN2-xTB          :
         :: total energy             -45.896806161816 Eh    ::
         :: gradient norm              0.000237933114 Eh/a0 ::
         :: HOMO-LUMO gap              2.481869121602 eV    ::
         :: SCC energy               -46.740546230370 Eh    ::
         :: -> dispersion             -0.031689656170 Eh    ::
         :: repulsion energy           0.844018162230 Eh    ::

    * Orbital Energies and Occupations

         #    Occupation            Energy/Eh            Energy/eV
      -------------------------------------------------------------
         1        2.0000           -0.8755462             -23.8248
       ...           ...                  ...                  ...
        31        2.0000           -0.5588355             -15.2067
        32        2.0000           -0.5553761             -15.1126
        33        2.0000           -0.5473435             -14.8940
        34        2.0000           -0.5440920             -14.8055
        35        2.0000           -0.5392893             -14.6748
        36        2.0000           -0.5364101             -14.5965
        37        2.0000           -0.5261442             -14.3171
        38        2.0000           -0.5220572             -14.2059
        39        2.0000           -0.5035689             -13.7028
        40        2.0000           -0.4961630             -13.5013
        41        2.0000           -0.4897783             -13.3275
        42        2.0000           -0.4755879             -12.9414
        43        2.0000           -0.4590102             -12.4903 (HOMO)
        44                         -0.3678031             -10.0084 (LUMO)
        45                         -0.3472364              -9.4488
        46                         -0.3091973              -8.4137
        47                         -0.2925551              -7.9608
        48                         -0.2547580              -6.9323
        49                         -0.2367194              -6.4415
        50                         -0.1979878              -5.3875
        51                         -0.1501399              -4.0855
        52                         -0.1355207              -3.6877
        53                         -0.0818376              -2.2269
        54                         -0.0741457              -2.0176
       ...                                ...                  ...
        86                          0.6127872              16.6748
      -------------------------------------------------------------
                  HL-Gap            0.0912070 Eh            2.4819 eV

     #   Z          covCN         q      C6AA      α(0)
     1   7 N        3.482    -0.146    24.146     7.298
     2   6 C        3.735    -0.028    21.165     6.566
     3   6 C        3.809    -0.090    22.208     6.708
     4   6 C        2.972    -0.015    28.374     8.737
     5   6 C        2.919    -0.039    28.982     8.828
     6   6 C        2.922    -0.030    28.753     8.793
     7   6 C        2.969     0.024    27.458     8.595
     8   6 C        2.901    -0.050    29.249     8.868
     9   6 C        2.902    -0.023    28.576     8.765
    10   6 C        2.971     0.013    27.724     8.637
    11   6 C        2.923    -0.029    28.732     8.790
    12   6 C        2.917    -0.026    28.640     8.776
    13   6 C        2.920    -0.021    28.526     8.759
    14   6 C        2.916    -0.025    28.623     8.773
    15   6 C        2.928    -0.029    28.717     8.788
    16   6 C        2.926    -0.038    28.956     8.825
    17   6 C        2.918    -0.069    29.719     8.940
    18   1 H        0.859     0.257     0.857     1.450
    19   1 H        0.859     0.260     0.847     1.441
    20   1 H        0.855     0.280     0.778     1.382
    21   1 H        0.925     0.099     1.791     2.093
    22   1 H        0.924     0.101     1.774     2.083
    23   1 H        0.924     0.067     2.116     2.275
    24   1 H        0.925     0.090     1.878     2.143
    25   1 H        0.926     0.044     2.391     2.418
    26   1 H        0.926     0.054     2.265     2.354
    27   1 H        0.925     0.044     2.397     2.421
    28   1 H        0.925     0.045     2.384     2.414
    29   1 H        0.926     0.035     2.518     2.482
    30   1 H        0.926     0.042     2.421     2.433
    31   1 H        0.926     0.046     2.369     2.407
    32   1 H        0.926     0.044     2.393     2.419
    33   1 H        0.926     0.038     2.479     2.462
    34   1 H        0.926     0.046     2.372     2.409
    35   1 H        0.925     0.028     2.613     2.528

Wiberg/Mayer (AO) data.
largest (>0.10) Wiberg bond orders for each atom

     #   Z sym  total        # sym  WBO       # sym  WBO       # sym  WBO
 ---------------------------------------------------------------------------
     1   7 N    3.662 --     2 C    0.936    18 H    0.920    19 H    0.918
                            20 H    0.821
     2   6 C    3.899 --     3 C    0.992    22 H    0.969    21 H    0.969
                             1 N    0.936
     3   6 C    3.979 --     4 C    1.006     2 C    0.992    23 H    0.969
                            24 H    0.961
     4   6 C    3.969 --     5 C    1.391    17 C    1.366     3 C    1.006
     5   6 C    3.990 --     6 C    1.478     4 C    1.391    25 H    0.968
     6   6 C    3.980 --     5 C    1.478     7 C    1.344    26 H    0.964
     7   6 C    3.985 --    16 C    1.361     6 C    1.344     8 C    1.127
     8   6 C    3.988 --     9 C    1.736     7 C    1.127    27 H    0.958
     9   6 C    3.985 --     8 C    1.736    10 C    1.124    28 H    0.958
    10   6 C    3.988 --    15 C    1.358    11 C    1.357     9 C    1.124
    11   6 C    3.982 --    12 C    1.468    10 C    1.357    29 H    0.966
                            14 C    0.103
    12   6 C    3.991 --    11 C    1.468    13 C    1.423    30 H    0.970
                            15 C    0.102
    13   6 C    3.976 --    14 C    1.428    12 C    1.423    31 H    0.971
    14   6 C    3.991 --    15 C    1.463    13 C    1.428    32 H    0.970
                            11 C    0.103
    15   6 C    3.981 --    14 C    1.463    10 C    1.358    33 H    0.968
                            12 C    0.102
    16   6 C    3.980 --    17 C    1.444     7 C    1.361    34 H    0.968
    17   6 C    3.988 --    16 C    1.444     4 C    1.366    35 H    0.958
    18   1 H    0.934 --     1 N    0.920
    19   1 H    0.932 --     1 N    0.918
    20   1 H    0.922 --     1 N    0.821
    21   1 H    0.989 --     2 C    0.969
    22   1 H    0.990 --     2 C    0.969
    23   1 H    0.995 --     3 C    0.969
    24   1 H    0.991 --     3 C    0.961
    25   1 H    0.998 --     5 C    0.968
    26   1 H    0.997 --     6 C    0.964
    27   1 H    0.998 --     8 C    0.958
    28   1 H    0.998 --     9 C    0.958
    29   1 H    0.999 --    11 C    0.966
    30   1 H    0.998 --    12 C    0.970
    31   1 H    0.997 --    13 C    0.971
    32   1 H    0.998 --    14 C    0.970
    33   1 H    0.999 --    15 C    0.968
    34   1 H    0.998 --    16 C    0.968
    35   1 H    0.999 --    17 C    0.958
 ---------------------------------------------------------------------------

molecular dipole:
                 x           y           z       tot (Debye)
 q only:        7.862      -1.601      -4.364
   full:        7.832      -1.794      -4.353      23.227

           -------------------------------------------------
          | TOTAL ENERGY              -45.896806161816 Eh   |
          | GRADIENT NORM               0.000237933114 Eh/α |
          | HOMO-LUMO GAP               2.481869121602 eV   |
           -------------------------------------------------

 * finished run on 2023/01/23 at 19:13:40.359
