   * xtb version 6.5.1 (fef0646) compiled by 'conda@b96dff2e9fd6' on 2023-01-04
          program call               : xtb init.xyz --opt -c 1 -u 0 -P 16 --alpb water

   ID    Z sym.   atoms
    1    7 N      1
    2    6 C      2-17
    3    1 H      18-35

      * Solvation model:               ALPB
        Solvent                        water
        Solvent mass                       1.8000E+01 g/mol
          :  Hamiltonian                  GFN2-xTB          :
 * total energy  :   -45.9964025 Eh     change       -0.2759819E-09 Eh
 * total energy  :   -45.9994515 Eh     change       -0.3048991E-02 Eh
 * total energy  :   -45.9999063 Eh     change       -0.4548195E-03 Eh
 * total energy  :   -46.0000385 Eh     change       -0.1322068E-03 Eh
 * total energy  :   -46.0001727 Eh     change       -0.1342074E-03 Eh
 * total energy  :   -46.0002788 Eh     change       -0.1060346E-03 Eh
 * total energy  :   -46.0004434 Eh     change       -0.1646720E-03 Eh
 * total energy  :   -46.0006377 Eh     change       -0.1942794E-03 Eh
 * total energy  :   -46.0008405 Eh     change       -0.2027849E-03 Eh
 * total energy  :   -46.0010370 Eh     change       -0.1964795E-03 Eh
 * total energy  :   -46.0014236 Eh     change       -0.3381183E-04 Eh
 * total energy  :   -46.0014541 Eh     change       -0.3055673E-04 Eh
 * total energy  :   -46.0014678 Eh     change       -0.1364657E-04 Eh
 * total energy  :   -46.0014943 Eh     change       -0.2652412E-04 Eh
 * total energy  :   -46.0015063 Eh     change       -0.1198691E-04 Eh
 * total energy  :   -46.0015210 Eh     change       -0.1471695E-04 Eh
 * total energy  :   -46.0015310 Eh     change       -0.1000815E-04 Eh
 * total energy  :   -46.0015414 Eh     change       -0.1042930E-04 Eh
 * total energy  :   -46.0015453 Eh     change       -0.3845723E-05 Eh
   *** GEOMETRY OPTIMIZATION CONVERGED AFTER 23 ITERATIONS ***

 final structure:
================
35
 xtb: 6.5.1 (fef0646)
N            2.72665204443019        1.16105526759073       -3.49461996351633
C            2.30404124115627        1.71465466629324       -2.18556781014603
C            2.87983152460395        0.86928225756401       -1.04957522792203
C            4.38297755280681        0.95240625450513       -1.01409009178432
C            5.01402265438905        2.06156912868703       -0.45931607072653
C            6.38983967433280        2.15837609023846       -0.43561343267441
C            7.18956007922973        1.14469811472081       -0.97171976454736
C            8.63994895353351        1.18333154375683       -0.95955853759591
C            9.40139175240645        2.01275669626373       -0.23291248251589
C           10.85269326056019        2.03126564286441       -0.20026418873635
C           11.64713270598967        1.36228306837329       -1.13475195225425
C           13.02489269819558        1.40532393286163       -1.05173170515436
C           13.64493232799752        2.11509190202822       -0.03554119202466
C           12.87226755464153        2.79066998145988        0.89530242228437
C           11.49431228505701        2.75324504686878        0.81025717683642
C            6.54946997810708        0.04103106533417       -1.54130744343780
C            5.17176129460702       -0.05407104112019       -1.56045176774926
H            2.40748843285301        1.75507618053170       -4.26777175904667
H            2.34298125406518        0.21677497625705       -3.62061245555531
H            3.75217426907459        1.09668175226350       -3.52209253429710
H            1.21628960302541        1.71876303011038       -2.13117588555871
H            2.66775845869161        2.73774487050135       -2.09704477945948
H            2.56971848711114       -0.16988052358272       -1.15905332971525
H            2.47823743922054        1.23920106948175       -0.10684463816678
H            4.42101687116320        2.85513083530198       -0.02871527720945
H            6.85159761123011        3.03183643976891       -0.00253192654479
H            9.11642312926237        0.43346258047688       -1.57742407643081
H            8.93307150009161        2.72629441210605        0.43250451614844
H           11.18691983420604        0.81377431345659       -1.94171599249534
H           13.62319903071814        0.88371554354303       -1.78422978639879
H           14.72241343891830        2.14456371386922        0.02787110458485
H           13.34814016160057        3.34904347733323        1.68799833803337
H           10.90048107809685        3.28242785430561        1.54167501441290
H            7.14792680748142       -0.75472871027460       -1.95987433947295
H            4.71370501114613       -0.93723143374074       -1.98066016116509

          :  Hamiltonian                  GFN2-xTB          :
         :: total energy             -46.001545289720 Eh    ::
         :: gradient norm              0.000758843720 Eh/a0 ::
         :: HOMO-LUMO gap              2.806712576737 eV    ::
         :: SCC energy               -46.853489917968 Eh    ::
         :: -> dispersion             -0.031403746411 Eh    ::
         :: -> Gsolv                  -0.118878738355 Eh    ::
         :: repulsion energy           0.852226632491 Eh    ::

    * Orbital Energies and Occupations

         #    Occupation            Energy/Eh            Energy/eV
      -------------------------------------------------------------
         1        2.0000           -0.6934145             -18.8688
       ...           ...                  ...                  ...
        31        2.0000           -0.4710119             -12.8169
        32        2.0000           -0.4658065             -12.6752
        33        2.0000           -0.4539921             -12.3538
        34        2.0000           -0.4428526             -12.0506
        35        2.0000           -0.4381530             -11.9228
        36        2.0000           -0.4310298             -11.7289
        37        2.0000           -0.4213958             -11.4668
        38        2.0000           -0.4195716             -11.4171
        39        2.0000           -0.4138650             -11.2618
        40        2.0000           -0.4093366             -11.1386
        41        2.0000           -0.4062430             -11.0544
        42        2.0000           -0.4036616             -10.9842
        43        2.0000           -0.3703461             -10.0776 (HOMO)
        44                         -0.2672013              -7.2709 (LUMO)
        45                         -0.2239231              -6.0933
        46                         -0.2211991              -6.0191
        47                         -0.2118068              -5.7636
        48                         -0.1632096              -4.4412
        49                         -0.0890045              -2.4219
        50                         -0.0709222              -1.9299
        51                         -0.0459650              -1.2508
        52                          0.0586126               1.5949
        53                          0.0822235               2.2374
        54                          0.0949635               2.5841
       ...                                ...                  ...
        86                          0.7009513              19.0739
      -------------------------------------------------------------
                  HL-Gap            0.1031448 Eh            2.8067 eV

     #   Z          covCN         q      C6AA      α(0)
     1   7 N        3.485    -0.154    24.326     7.325
     2   6 C        3.733    -0.036    21.317     6.590
     3   6 C        3.808    -0.094    22.293     6.721
     4   6 C        2.970     0.008    27.845     8.656
     5   6 C        2.922    -0.045    29.125     8.850
     6   6 C        2.922    -0.038    28.937     8.821
     7   6 C        2.970     0.009    27.807     8.650
     8   6 C        2.901    -0.044    29.100     8.845
     9   6 C        2.901    -0.043    29.074     8.841
    10   6 C        2.970     0.011    27.769     8.644
    11   6 C        2.924    -0.039    28.972     8.827
    12   6 C        2.918    -0.036    28.884     8.813
    13   6 C        2.920    -0.036    28.898     8.815
    14   6 C        2.917    -0.035    28.879     8.812
    15   6 C        2.929    -0.040    28.990     8.830
    16   6 C        2.927    -0.041    29.020     8.834
    17   6 C        2.921    -0.054    29.346     8.884
    18   1 H        0.859     0.317     0.665     1.278
    19   1 H        0.859     0.309     0.686     1.298
    20   1 H        0.859     0.294     0.733     1.341
    21   1 H        0.925     0.117     1.641     2.003
    22   1 H        0.925     0.109     1.704     2.041
    23   1 H        0.925     0.080     1.975     2.197
    24   1 H        0.925     0.080     1.975     2.198
    25   1 H        0.926     0.046     2.370     2.408
    26   1 H        0.926     0.028     2.615     2.529
    27   1 H        0.925     0.036     2.498     2.472
    28   1 H        0.925     0.038     2.474     2.460
    29   1 H        0.926     0.040     2.445     2.445
    30   1 H        0.926     0.032     2.551     2.498
    31   1 H        0.926     0.029     2.604     2.524
    32   1 H        0.926     0.030     2.592     2.518
    33   1 H        0.926     0.034     2.527     2.486
    34   1 H        0.926     0.032     2.564     2.504
    35   1 H        0.926     0.057     2.232     2.336

Wiberg/Mayer (AO) data.
largest (>0.10) Wiberg bond orders for each atom

     #   Z sym  total        # sym  WBO       # sym  WBO       # sym  WBO
 ---------------------------------------------------------------------------
     1   7 N    3.657 --     2 C    0.966    20 H    0.893    19 H    0.889
                            18 H    0.886
     2   6 C    3.925 --     3 C    0.997    22 H    0.966     1 N    0.966
                            21 H    0.964
     3   6 C    3.988 --     4 C    1.011     2 C    0.997    23 H    0.967
                            24 H    0.960
     4   6 C    3.977 --    17 C    1.404     5 C    1.394     3 C    1.011
     5   6 C    3.990 --     6 C    1.472     4 C    1.394    25 H    0.968
                            16 C    0.102
     6   6 C    3.983 --     5 C    1.472     7 C    1.359    26 H    0.966
                            17 C    0.101
     7   6 C    3.989 --    16 C    1.368     6 C    1.359     8 C    1.111
     8   6 C    3.989 --     9 C    1.763     7 C    1.111    27 H    0.959
     9   6 C    3.988 --     8 C    1.763    10 C    1.110    28 H    0.959
    10   6 C    3.989 --    15 C    1.366    11 C    1.365     9 C    1.110
    11   6 C    3.983 --    12 C    1.463    10 C    1.365    29 H    0.965
                            14 C    0.105
    12   6 C    3.992 --    11 C    1.463    13 C    1.427    30 H    0.971
                            15 C    0.104
    13   6 C    3.981 --    14 C    1.430    12 C    1.427    31 H    0.972
    14   6 C    3.992 --    15 C    1.460    13 C    1.430    32 H    0.971
                            11 C    0.105
    15   6 C    3.982 --    14 C    1.460    10 C    1.366    33 H    0.969
                            12 C    0.104
    16   6 C    3.981 --    17 C    1.457     7 C    1.368    34 H    0.969
                             5 C    0.102
    17   6 C    3.988 --    16 C    1.457     4 C    1.404    35 H    0.966
                             6 C    0.101
    18   1 H    0.900 --     1 N    0.886
    19   1 H    0.904 --     1 N    0.889
    20   1 H    0.914 --     1 N    0.893
    21   1 H    0.986 --     2 C    0.964
    22   1 H    0.988 --     2 C    0.966
    23   1 H    0.993 --     3 C    0.967
    24   1 H    0.992 --     3 C    0.960
    25   1 H    0.997 --     5 C    0.968
    26   1 H    0.999 --     6 C    0.966
    27   1 H    0.998 --     8 C    0.959
    28   1 H    0.998 --     9 C    0.959
    29   1 H    0.998 --    11 C    0.965
    30   1 H    0.999 --    12 C    0.971
    31   1 H    0.999 --    13 C    0.972
    32   1 H    0.999 --    14 C    0.971
    33   1 H    0.999 --    15 C    0.969
    34   1 H    0.999 --    16 C    0.969
    35   1 H    0.996 --    17 C    0.966
 ---------------------------------------------------------------------------

molecular dipole:
                 x           y           z       tot (Debye)
 q only:        4.511       2.152      -6.388
   full:        4.921       2.152      -6.342      21.123

           -------------------------------------------------
          | TOTAL ENERGY              -46.001545289720 Eh   |
          | GRADIENT NORM               0.000758843720 Eh/α |
          | HOMO-LUMO GAP               2.806712576737 eV   |
           -------------------------------------------------

 * finished run on 2023/01/24 at 15:32:35.545
