   * xtb version 6.5.1 (fef0646) compiled by 'conda@b96dff2e9fd6' on 2023-01-04
          program call               : xtb init.xyz --opt -c 1 -u 0 -P 16 --alpb water

   ID    Z sym.   atoms
    1    7 N      1
    2    6 C      2-11
    3   16 S      12, 13
    4    1 H      14-25

      * Solvation model:               ALPB
        Solvent                        water
        Solvent mass                       1.8000E+01 g/mol
          :  Hamiltonian                  GFN2-xTB          :
 * total energy  :   -36.5942250 Eh     change       -0.2661125E-09 Eh
 * total energy  :   -36.5975640 Eh     change       -0.3338936E-02 Eh
 * total energy  :   -36.5984549 Eh     change       -0.8909565E-03 Eh
 * total energy  :   -36.5988451 Eh     change       -0.3901392E-03 Eh
 * total energy  :   -36.5992368 Eh     change       -0.3917685E-03 Eh
 * total energy  :   -36.5995636 Eh     change       -0.3267996E-03 Eh
 * total energy  :   -36.5999826 Eh     change       -0.4190017E-03 Eh
 * total energy  :   -36.6004033 Eh     change       -0.4207122E-03 Eh
 * total energy  :   -36.6007124 Eh     change       -0.3090436E-03 Eh
 * total energy  :   -36.6008835 Eh     change       -0.1711250E-03 Eh
 * total energy  :   -36.6009758 Eh     change       -0.9230890E-04 Eh
 * total energy  :   -36.6010338 Eh     change       -0.5796886E-04 Eh
 * total energy  :   -36.6010876 Eh     change       -0.5386251E-04 Eh
 * total energy  :   -36.6011458 Eh     change       -0.5814449E-04 Eh
 * total energy  :   -36.6011689 Eh     change       -0.2311928E-04 Eh
 * total energy  :   -36.6011855 Eh     change       -0.1658880E-04 Eh
 * total energy  :   -36.6011907 Eh     change       -0.5240921E-05 Eh
 * total energy  :   -36.6011953 Eh     change       -0.4552884E-05 Eh
   *** GEOMETRY OPTIMIZATION CONVERGED AFTER 18 ITERATIONS ***

 final structure:
================
25
 xtb: 6.5.1 (fef0646)
N            3.05550569550780       -0.25425674634780       -1.23932710892590
C            2.67360289680151        1.07642658905856       -0.71848489874294
C            3.09428173849570        1.23069863772266        0.74527691578532
C            4.57378112698085        1.32821946338219        0.91326802689640
C            5.31369547227900        2.40131450659896        1.30741361841464
C            6.69840391307276        2.14570941401294        1.35355430363538
C            7.03191050120148        0.86643971848975        0.98922536024132
C            8.32156252829881        0.25821486192140        0.89748794103923
C            9.54586549919272        0.79858718176348        1.19657524020527
C           10.60885038205962       -0.09978371676718        0.98077356870078
C           10.19887740058662       -1.31073910657634        0.52067107815642
S            8.49762162401335       -1.38497102913147        0.34225805051297
S            5.61244061528342       -0.04053487912147        0.60468515406415
H            2.80231363592114       -0.34689220790693       -2.22869355664260
H            2.59220249921513       -0.99733913945810       -0.70351917515233
H            4.07262880849255       -0.38907915379646       -1.13894949462959
H            1.59270368167334        1.19380635840221       -0.78903024695324
H            3.15263712233413        1.84927596210669       -1.31919365354762
H            2.71805448426375        0.38835655927498        1.32708886175716
H            2.64805721205927        2.14070759300446        1.14430017289942
H            4.89160016587814        3.35616693506320        1.56335037769467
H            7.43021789129007        2.87847664984774        1.64362742929453
H            9.68230922447941        1.80049067530277        1.56033549677717
H           11.64044634543130        0.14619460278660        1.16056632223026
H           10.78954953518832       -2.17008972963282        0.27511021628979

          :  Hamiltonian                  GFN2-xTB          :
         :: total energy             -36.601195291317 Eh    ::
         :: gradient norm              0.000945939832 Eh/a0 ::
         :: HOMO-LUMO gap              2.593835433372 eV    ::
         :: SCC energy               -37.148237966125 Eh    ::
         :: -> dispersion             -0.024871831004 Eh    ::
         :: -> Gsolv                  -0.120053247505 Eh    ::
         :: repulsion energy           0.547090277067 Eh    ::

    * Orbital Energies and Occupations

         #    Occupation            Energy/Eh            Energy/eV
      -------------------------------------------------------------
         1        2.0000           -0.7402846             -20.1442
       ...           ...                  ...                  ...
        22        2.0000           -0.4863885             -13.2353
        23        2.0000           -0.4787262             -13.0268
        24        2.0000           -0.4748056             -12.9201
        25        2.0000           -0.4694363             -12.7740
        26        2.0000           -0.4658280             -12.6758
        27        2.0000           -0.4560926             -12.4109
        28        2.0000           -0.4517890             -12.2938
        29        2.0000           -0.4486335             -12.2079
        30        2.0000           -0.4481618             -12.1951
        31        2.0000           -0.4222660             -11.4904
        32        2.0000           -0.4050302             -11.0214
        33        2.0000           -0.4008309             -10.9072
        34        2.0000           -0.3720728             -10.1246 (HOMO)
        35                         -0.2767511              -7.5308 (LUMO)
        36                         -0.2279506              -6.2029
        37                         -0.2228190              -6.0632
        38                         -0.1956858              -5.3249
        39                         -0.1826503              -4.9702
        40                         -0.1522192              -4.1421
        41                         -0.1314909              -3.5780
        42                         -0.1234337              -3.3588
        43                         -0.0382845              -1.0418
        44                         -0.0124716              -0.3394
        45                         -0.0082981              -0.2258
       ...                                ...                  ...
        74                          0.7032622              19.1367
      -------------------------------------------------------------
                  HL-Gap            0.0953217 Eh            2.5938 eV

     #   Z          covCN         q      C6AA      α(0)
     1   7 N        3.485    -0.163    24.524     7.355
     2   6 C        3.732    -0.041    21.407     6.604
     3   6 C        3.822    -0.096    22.315     6.722
     4   6 C        2.983     0.026    27.414     8.589
     5   6 C        3.111    -0.061    29.351     8.876
     6   6 C        3.121    -0.055    29.167     8.845
     7   6 C        3.016     0.007    27.840     8.655
     8   6 C        3.030     0.013    27.693     8.632
     9   6 C        3.109    -0.060    29.340     8.874
    10   6 C        3.121    -0.048    29.018     8.822
    11   6 C        2.937    -0.029    28.719     8.789
    12  16 S        2.373    -0.026   142.122    20.065
    13  16 S        2.410    -0.022   141.968    20.054
    14   1 H        0.859     0.321     0.654     1.267
    15   1 H        0.859     0.315     0.672     1.284
    16   1 H        0.859     0.304     0.703     1.313
    17   1 H        0.925     0.126     1.567     1.958
    18   1 H        0.925     0.116     1.643     2.004
    19   1 H        0.924     0.106     1.735     2.060
    20   1 H        0.925     0.095     1.830     2.115
    21   1 H        0.926     0.050     2.315     2.379
    22   1 H        0.926     0.021     2.723     2.581
    23   1 H        0.926     0.032     2.554     2.499
    24   1 H        0.926     0.030     2.588     2.516
    25   1 H        0.926     0.040     2.446     2.446

Wiberg/Mayer (AO) data.
largest (>0.10) Wiberg bond orders for each atom

     #   Z sym  total        # sym  WBO       # sym  WBO       # sym  WBO
 ---------------------------------------------------------------------------
     1   7 N    3.649 --     2 C    0.973    15 H    0.886    14 H    0.883
                            16 H    0.873
     2   6 C    3.926 --     3 C    0.994     1 N    0.973    18 H    0.965
                            17 H    0.961
     3   6 C    3.983 --     4 C    1.025     2 C    0.994    20 H    0.959
                            19 H    0.952
     4   6 C    3.930 --     5 C    1.580    13 S    1.148     3 C    1.025
     5   6 C    3.986 --     4 C    1.580     6 C    1.295    21 H    0.962
     6   6 C    3.987 --     7 C    1.516     5 C    1.295    22 H    0.964
     7   6 C    3.957 --     6 C    1.516     8 C    1.149    13 S    1.121
     8   6 C    3.950 --     9 C    1.509     7 C    1.149    12 S    1.136
                            11 C    0.101
     9   6 C    3.984 --     8 C    1.509    10 C    1.297    23 H    0.965
    10   6 C    3.989 --    11 C    1.610     9 C    1.297    24 H    0.965
    11   6 C    3.936 --    10 C    1.610    12 S    1.191    25 H    0.972
                             8 C    0.101
    12  16 S    2.609 --    11 C    1.191     8 C    1.136
    13  16 S    2.591 --     4 C    1.148     7 C    1.121
    14   1 H    0.897 --     1 N    0.883
    15   1 H    0.901 --     1 N    0.886
    16   1 H    0.908 --     1 N    0.873
    17   1 H    0.983 --     2 C    0.961
    18   1 H    0.986 --     2 C    0.965
    19   1 H    0.987 --     3 C    0.952
    20   1 H    0.991 --     3 C    0.959
    21   1 H    0.997 --     5 C    0.962
    22   1 H    0.999 --     6 C    0.964
    23   1 H    0.999 --     9 C    0.965
    24   1 H    0.998 --    10 C    0.965
    25   1 H    0.998 --    11 C    0.972
 ---------------------------------------------------------------------------

molecular dipole:
                 x           y           z       tot (Debye)
 q only:        4.739      -0.072      -2.238
   full:        6.058       0.240      -1.784      16.064

           -------------------------------------------------
          | TOTAL ENERGY              -36.601195291317 Eh   |
          | GRADIENT NORM               0.000945939832 Eh/α |
          | HOMO-LUMO GAP               2.593835433372 eV   |
           -------------------------------------------------

 * finished run on 2023/01/24 at 14:57:38.515
