   * xtb version 6.5.1 (fef0646) compiled by 'conda@b96dff2e9fd6' on 2023-01-04
          program call               : xtb init.xyz --opt -c 0 -u 0 -P 16 --alpb water

   ID    Z sym.   atoms
    1    7 N      1
    2    6 C      2-5
    3   17 Cl     6
    4    1 H      7-14

      * Solvation model:               ALPB
        Solvent                        water
        Solvent mass                       1.8000E+01 g/mol
          :  Hamiltonian                  GFN2-xTB          :
 * total energy  :   -20.0463090 Eh     change       -0.3714185E-09 Eh
 * total energy  :   -20.0715428 Eh     change       -0.2523383E-01 Eh
 * total energy  :   -20.0742129 Eh     change       -0.2670066E-02 Eh
 * total energy  :   -20.0750463 Eh     change       -0.8334032E-03 Eh
 * total energy  :   -20.0755017 Eh     change       -0.4553697E-03 Eh
 * total energy  :   -20.0758966 Eh     change       -0.3949551E-03 Eh
 * total energy  :   -20.0762584 Eh     change       -0.3617441E-03 Eh
 * total energy  :   -20.0766433 Eh     change       -0.3849498E-03 Eh
 * total energy  :   -20.0769302 Eh     change       -0.2869054E-03 Eh
 * total energy  :   -20.0770360 Eh     change       -0.1057613E-03 Eh
 * total energy  :   -20.0772149 Eh     change       -0.9782163E-04 Eh
 * total energy  :   -20.0772767 Eh     change       -0.6180675E-04 Eh
 * total energy  :   -20.0773102 Eh     change       -0.3348515E-04 Eh
 * total energy  :   -20.0773414 Eh     change       -0.3119622E-04 Eh
 * total energy  :   -20.0773575 Eh     change       -0.1605675E-04 Eh
 * total energy  :   -20.0773691 Eh     change       -0.1163099E-04 Eh
 * total energy  :   -20.0773890 Eh     change       -0.1995468E-04 Eh
 * total energy  :   -20.0773941 Eh     change       -0.5017350E-05 Eh
 * total energy  :   -20.0773953 Eh     change       -0.1272497E-05 Eh
   *** GEOMETRY OPTIMIZATION CONVERGED AFTER 20 ITERATIONS ***

 final structure:
================
14
 xtb: 6.5.1 (fef0646)
N            1.10485139856706        0.20834380173430        0.54038666701573
C            2.55425945127166        0.15087868507126        0.26603026491923
C            2.81885914469176        0.69603865785409       -1.13607355563449
C            2.56332972913681        2.12136847016157       -1.20806131153053
C            2.34773765732952        3.29862948689709       -1.23111638041100
Cl          -0.27366552925688       -1.52170704277393       -1.57105194193725
H            0.87686269560695       -0.13245520541247        1.47611156807813
H            0.59524980988725       -0.39002102494694       -0.15987859913780
H            0.76328369548958        1.16645290901885        0.42284378388226
H            2.87818137912000       -0.88773662351658        0.31371057828018
H            3.09225533238638        0.74141579662265        1.00896238294404
H            2.16750230016970        0.17678661761210       -1.84420292781658
H            3.85492570189228        0.50895128346420       -1.42092003136996
H            2.16405723370818        4.33037418821433       -1.27489049728176

          :  Hamiltonian                  GFN2-xTB          :
         :: total energy             -20.077395333280 Eh    ::
         :: gradient norm              0.000500520366 Eh/a0 ::
         :: HOMO-LUMO gap              6.753381011864 eV    ::
         :: SCC energy               -20.373854341488 Eh    ::
         :: -> dispersion             -0.007621662176 Eh    ::
         :: -> Gsolv                  -0.071424855465 Eh    ::
         :: repulsion energy           0.296433290151 Eh    ::

    * Orbital Energies and Occupations

         #    Occupation            Energy/Eh            Energy/eV
      -------------------------------------------------------------
         1        2.0000           -1.0069072             -27.3993
       ...           ...                  ...                  ...
         6        2.0000           -0.5680847             -15.4584
         7        2.0000           -0.5649678             -15.3736
         8        2.0000           -0.5414302             -14.7331
         9        2.0000           -0.5127492             -13.9526
        10        2.0000           -0.4856263             -13.2146
        11        2.0000           -0.4807667             -13.0823
        12        2.0000           -0.4686584             -12.7528
        13        2.0000           -0.4464429             -12.1483
        14        2.0000           -0.4073115             -11.0835
        15        2.0000           -0.4035703             -10.9817
        16        2.0000           -0.4020235             -10.9396
        17        2.0000           -0.4006493             -10.9022
        18        2.0000           -0.3977393             -10.8230 (HOMO)
        19                         -0.1495571              -4.0697 (LUMO)
        20                         -0.1414203              -3.8482
        21                         -0.0211928              -0.5767
        22                          0.0657464               1.7891
        23                          0.0825416               2.2461
        24                          0.1072989               2.9198
        25                          0.1158372               3.1521
        26                          0.1168784               3.1804
        27                          0.1179891               3.2106
        28                          0.1190804               3.2403
        29                          0.1193332               3.2472
       ...                                ...                  ...
        37                          1.4380033              39.1301
      -------------------------------------------------------------
                  HL-Gap            0.2481822 Eh            6.7534 eV

     #   Z          covCN         q      C6AA      α(0)
     1   7 N        3.484    -0.165    24.565     7.361
     2   6 C        3.737    -0.021    21.041     6.546
     3   6 C        3.806    -0.064    21.729     6.636
     4   6 C        1.967    -0.029    31.830     9.111
     5   6 C        1.909    -0.133    34.833     9.532
     6  17 Cl       0.048    -0.947   124.872    17.007
     7   1 H        0.860     0.303     0.703     1.314
     8   1 H        0.905     0.296     0.722     1.329
     9   1 H        0.859     0.289     0.746     1.353
    10   1 H        0.925     0.102     1.767     2.079
    11   1 H        0.924     0.108     1.711     2.045
    12   1 H        0.924     0.085     1.930     2.173
    13   1 H        0.924     0.090     1.882     2.146
    14   1 H        0.928     0.086     1.917     2.165

Wiberg/Mayer (AO) data.
largest (>0.10) Wiberg bond orders for each atom

     #   Z sym  total        # sym  WBO       # sym  WBO       # sym  WBO
 ---------------------------------------------------------------------------
     1   7 N    3.647 --     2 C    0.969     9 H    0.899     7 H    0.894
                             8 H    0.831
     2   6 C    3.932 --     3 C    0.992     1 N    0.969    10 H    0.968
                            11 H    0.967
     3   6 C    3.992 --     4 C    1.054     2 C    0.992    12 H    0.946
                            13 H    0.946
     4   6 C    3.979 --     5 C    2.892     3 C    1.054
     5   6 C    3.972 --     4 C    2.892    14 H    0.969
     6  17 Cl   0.103
     7   1 H    0.908 --     1 N    0.894
     8   1 H    0.912 --     1 N    0.831
     9   1 H    0.916 --     1 N    0.899
    10   1 H    0.989 --     2 C    0.968
    11   1 H    0.988 --     2 C    0.967
    12   1 H    0.993 --     3 C    0.946
    13   1 H    0.992 --     3 C    0.946
    14   1 H    0.992 --     5 C    0.969
 ---------------------------------------------------------------------------

molecular dipole:
                 x           y           z       tot (Debye)
 q only:        2.765       2.770       3.655
   full:        2.253       2.406       3.196      11.669

           -------------------------------------------------
          | TOTAL ENERGY              -20.077395333280 Eh   |
          | GRADIENT NORM               0.000500520366 Eh/α |
          | HOMO-LUMO GAP               6.753381011864 eV   |
           -------------------------------------------------

 * finished run on 2023/01/24 at 14:56:01.374
