   * xtb version 6.5.1 (fef0646) compiled by 'conda@b96dff2e9fd6' on 2023-01-04
          program call               : xtb init.xyz --opt -c 0 -u 0 -P 16 --alpb water

   ID    Z sym.   atoms
    1    7 N      1
    2    6 C      2-9
    3   17 Cl     10
    4    1 H      11-22

      * Solvation model:               ALPB
        Solvent                        water
        Solvent mass                       1.8000E+01 g/mol
          :  Hamiltonian                  GFN2-xTB          :
 * total energy  :   -30.7371844 Eh     change       -0.5672582E-09 Eh
 * total energy  :   -30.7420332 Eh     change       -0.4848843E-02 Eh
 * total energy  :   -30.7429997 Eh     change       -0.9665010E-03 Eh
 * total energy  :   -30.7434410 Eh     change       -0.4412905E-03 Eh
 * total energy  :   -30.7436650 Eh     change       -0.2240206E-03 Eh
 * total energy  :   -30.7439356 Eh     change       -0.2705183E-03 Eh
 * total energy  :   -30.7441810 Eh     change       -0.2454516E-03 Eh
 * total energy  :   -30.7443786 Eh     change       -0.1975800E-03 Eh
 * total energy  :   -30.7444896 Eh     change       -0.1109807E-03 Eh
 * total energy  :   -30.7445474 Eh     change       -0.5784327E-04 Eh
 * total energy  :   -30.7449024 Eh     change       -0.5500424E-04 Eh
 * total energy  :   -30.7449298 Eh     change       -0.2734347E-04 Eh
 * total energy  :   -30.7449688 Eh     change       -0.3902840E-04 Eh
 * total energy  :   -30.7449893 Eh     change       -0.2055806E-04 Eh
 * total energy  :   -30.7450092 Eh     change       -0.1989975E-04 Eh
 * total energy  :   -30.7450144 Eh     change       -0.5127910E-05 Eh
 * total energy  :   -30.7450276 Eh     change       -0.1320396E-04 Eh
 * total energy  :   -30.7450348 Eh     change       -0.7217085E-05 Eh
 * total energy  :   -30.7450390 Eh     change       -0.4173617E-05 Eh
   *** GEOMETRY OPTIMIZATION CONVERGED AFTER 23 ITERATIONS ***

 final structure:
================
22
 xtb: 6.5.1 (fef0646)
N            1.04794879980799       -0.14697367567632        0.22639568160366
C            2.52408200568017       -0.13670066669933        0.19604835219159
C            3.01233594212260       -0.05855943864742       -1.25048292822693
C            4.49646237010878        0.17980121821593       -1.28665453006589
C            5.38897297274026       -0.88416959941826       -1.25925109050223
C            6.75445133841682       -0.65822271169497       -1.25960173183379
C            7.24390739029650        0.63692380645121       -1.28533737626181
C            6.36149696415748        1.70423446071704       -1.31079312942526
C            4.99677827703699        1.47544645251763       -1.30856465576268
Cl           0.08055846157783        2.44150763900492       -1.08635594707894
H            0.69083398713568       -0.17622316844025        1.18373381739196
H            0.67727504667260       -0.93694832874972       -0.30728721500839
H            0.68652867507588        0.73358961198039       -0.22281509014069
H            2.91186608364954       -1.03472999238213        0.67844701424353
H            2.87704422507590        0.74104460366862        0.73721545289708
H            2.49425884404210        0.76818312747573       -1.74009159476969
H            2.77623200685566       -0.98314510293486       -1.77814055701305
H            5.01548380675256       -1.89724636973821       -1.24557172516647
H            7.43987774049241       -1.49254552147880       -1.24144091491592
H            8.30897839181849        0.81569090736288       -1.28841166691503
H            6.73782167809459        2.71666054713426       -1.33445522981094
H            4.30910499238653        2.30930220133064       -1.33195493542994

          :  Hamiltonian                  GFN2-xTB          :
         :: total energy             -30.745038961543 Eh    ::
         :: gradient norm              0.000509846483 Eh/a0 ::
         :: HOMO-LUMO gap              4.750158285454 eV    ::
         :: SCC energy               -31.195827054358 Eh    ::
         :: -> dispersion             -0.016764425320 Eh    ::
         :: -> Gsolv                  -0.073776127097 Eh    ::
         :: repulsion energy           0.450762835084 Eh    ::

    * Orbital Energies and Occupations

         #    Occupation            Energy/Eh            Energy/eV
      -------------------------------------------------------------
         1        2.0000           -1.0065967             -27.3909
       ...           ...                  ...                  ...
        16        2.0000           -0.4803311             -13.0705
        17        2.0000           -0.4758449             -12.9484
        18        2.0000           -0.4704470             -12.8015
        19        2.0000           -0.4659180             -12.6783
        20        2.0000           -0.4574701             -12.4484
        21        2.0000           -0.4372003             -11.8968
        22        2.0000           -0.4188850             -11.3984
        23        2.0000           -0.4138693             -11.2620
        24        2.0000           -0.4031699             -10.9708
        25        2.0000           -0.4004919             -10.8979
        26        2.0000           -0.4003415             -10.8938
        27        2.0000           -0.3980319             -10.8310
        28        2.0000           -0.3918407             -10.6625 (HOMO)
        29                         -0.2172756              -5.9124 (LUMO)
        30                         -0.2166298              -5.8948
        31                         -0.0889183              -2.4196
        32                         -0.0247180              -0.6726
        33                          0.0782160               2.1284
        34                          0.1003760               2.7314
        35                          0.1078359               2.9344
        36                          0.1166773               3.1750
        37                          0.1171787               3.1886
        38                          0.1191617               3.2426
        39                          0.1194115               3.2494
       ...                                ...                  ...
        57                          0.6696066              18.2209
      -------------------------------------------------------------
                  HL-Gap            0.1745651 Eh            4.7502 eV

     #   Z          covCN         q      C6AA      α(0)
     1   7 N        3.484    -0.170    24.663     7.376
     2   6 C        3.734    -0.020    21.028     6.545
     3   6 C        3.809    -0.086    22.134     6.697
     4   6 C        2.972     0.015    27.684     8.631
     5   6 C        2.924    -0.046    29.137     8.852
     6   6 C        2.919    -0.037    28.912     8.817
     7   6 C        2.920    -0.038    28.954     8.824
     8   6 C        2.919    -0.035    28.875     8.812
     9   6 C        2.925    -0.041    29.017     8.834
    10  17 Cl       0.048    -0.947   124.884    17.008
    11   1 H        0.859     0.305     0.700     1.310
    12   1 H        0.859     0.299     0.716     1.325
    13   1 H        0.905     0.295     0.725     1.332
    14   1 H        0.924     0.105     1.736     2.060
    15   1 H        0.925     0.094     1.839     2.121
    16   1 H        0.924     0.067     2.122     2.278
    17   1 H        0.924     0.070     2.082     2.256
    18   1 H        0.926     0.050     2.326     2.385
    19   1 H        0.926     0.036     2.497     2.471
    20   1 H        0.926     0.029     2.601     2.522
    21   1 H        0.926     0.026     2.649     2.545
    22   1 H        0.926     0.030     2.585     2.514

Wiberg/Mayer (AO) data.
largest (>0.10) Wiberg bond orders for each atom

     #   Z sym  total        # sym  WBO       # sym  WBO       # sym  WBO
 ---------------------------------------------------------------------------
     1   7 N    3.644 --     2 C    0.970    12 H    0.896    11 H    0.893
                            13 H    0.832
     2   6 C    3.933 --     3 C    0.993     1 N    0.970    15 H    0.970
                            14 H    0.968
     3   6 C    3.991 --     4 C    1.008     2 C    0.993    17 H    0.969
                            16 H    0.967
     4   6 C    3.989 --     5 C    1.415     9 C    1.412     3 C    1.008
                             7 C    0.110
     5   6 C    3.990 --     6 C    1.444     4 C    1.415    18 H    0.968
                             8 C    0.111
     6   6 C    3.992 --     5 C    1.444     7 C    1.439    19 H    0.971
                             9 C    0.112
     7   6 C    3.992 --     6 C    1.439     8 C    1.438    20 H    0.972
                             4 C    0.110
     8   6 C    3.993 --     9 C    1.446     7 C    1.438    21 H    0.971
                             5 C    0.111
     9   6 C    3.992 --     8 C    1.446     4 C    1.412    22 H    0.970
                             6 C    0.112
    10  17 Cl   0.102
    11   1 H    0.907 --     1 N    0.893
    12   1 H    0.910 --     1 N    0.896
    13   1 H    0.913 --     1 N    0.832
    14   1 H    0.989 --     2 C    0.968
    15   1 H    0.991 --     2 C    0.970
    16   1 H    0.995 --     3 C    0.967
    17   1 H    0.995 --     3 C    0.969
    18   1 H    0.998 --     5 C    0.968
    19   1 H    0.998 --     6 C    0.971
    20   1 H    0.999 --     7 C    0.972
    21   1 H    0.999 --     8 C    0.971
    22   1 H    0.999 --     9 C    0.970
 ---------------------------------------------------------------------------

molecular dipole:
                 x           y           z       tot (Debye)
 q only:        1.733      -4.758       2.292
   full:        1.388      -4.074       2.010      12.073

           -------------------------------------------------
          | TOTAL ENERGY              -30.745038961543 Eh   |
          | GRADIENT NORM               0.000509846483 Eh/α |
          | HOMO-LUMO GAP               4.750158285454 eV   |
           -------------------------------------------------

 * finished run on 2023/01/24 at 14:57:43.034
