   * xtb version 6.5.1 (fef0646) compiled by 'conda@b96dff2e9fd6' on 2023-01-04
          program call               : xtb init.xyz --opt -c 1 -u 0 -P 16 --alpb water

   ID    Z sym.   atoms
    1    7 N      1
    2    6 C      2-13
    3    1 H      14-41

      * Solvation model:               ALPB
        Solvent                        water
        Solvent mass                       1.8000E+01 g/mol
          :  Hamiltonian                  GFN2-xTB          :
 * total energy  :   -42.5939959 Eh     change       -0.1602984E-10 Eh
 * total energy  :   -42.5956684 Eh     change       -0.1672497E-02 Eh
 * total energy  :   -42.5958255 Eh     change       -0.1570705E-03 Eh
 * total energy  :   -42.5958634 Eh     change       -0.3795542E-04 Eh
 * total energy  :   -42.5958708 Eh     change       -0.7333782E-05 Eh
 * total energy  :   -42.5958658 Eh     change        0.4919160E-05 Eh
 * total energy  :   -42.5958726 Eh     change       -0.6721068E-05 Eh
 * total energy  :   -42.5958730 Eh     change       -0.4135608E-06 Eh
   *** GEOMETRY OPTIMIZATION CONVERGED AFTER 8 ITERATIONS ***

 final structure:
================
41
 xtb: 6.5.1 (fef0646)
N            0.80726734370563        0.00806194584697        0.08807864954897
C            2.29106042512747        0.00161496298290        0.08368982236513
C            2.82030023563712       -1.08597360912505       -0.84398999662265
C            4.34833958578436       -1.10230843788148       -0.85457085154855
C            4.89129374028896       -2.18853103809896       -1.78093314767976
C            6.41773092081644       -2.21251618515012       -1.80021856786273
C            6.95918556147775       -3.29849298426574       -2.72702698172983
C            8.48551888723482       -3.32574981723596       -2.75028173210223
C            9.02534093137894       -4.41230902807008       -3.67725513409997
C           10.55174744982282       -4.44124674426333       -3.70169406343055
C           11.09044763941766       -5.52786628783566       -4.62918556982795
C           12.61690944713091       -5.55901939981109       -4.65532116575070
C           13.14675053169712       -6.64549833056078       -5.58370825598610
H            0.44744451118662        0.74103020013012        0.70963551781222
H            0.45114969607500       -0.90075269872693        0.40753428939788
H            0.45294767891264        0.17684135872208       -0.86088878359587
H            2.65159522481233       -0.17260643394381        1.09730562337266
H            2.65222521522909        0.97501466771332       -0.24767890886322
H            2.46976664693421       -0.91714351610071       -1.86312642684594
H            2.46685633811559       -2.06539863551031       -0.51875835987119
H            4.72503308811723       -1.27788150565359        0.15482780464439
H            4.72794483051249       -0.13370176915605       -1.18516392248267
H            4.52800850155744       -2.02125093714913       -2.79739760946763
H            4.52695253267812       -3.16572246331898       -1.45614711969423
H            6.79443638738023       -2.38610074857096       -0.78943019090387
H            6.79540906931894       -1.24173124471665       -2.12985479421461
H            6.58988758093732       -3.12929429138224       -3.74139651829164
H            6.58985900865467       -4.27366346887073       -2.40055884889511
H            8.86168583795533       -3.49815489554843       -1.73895506276662
H            8.86164417709131       -2.35421710435958       -3.07990715292510
H            8.65371138091039       -4.24201900410677       -4.69060755689621
H            8.65349555746608       -5.38615279047153       -3.34962832411147
H           10.92718085400916       -4.61359090641850       -2.69002715938472
H           10.92739586591015       -3.46924094803506       -4.03064284410942
H           10.71787408345095       -5.35651524322237       -5.64203283694562
H           10.71749161405896       -6.50118819345628       -4.30120993163842
H           12.99164054189915       -5.73245260335157       -3.64389955341570
H           12.99209528235590       -4.58710630490727       -4.98411432309159
H           12.80041550001085       -7.62494238290518       -5.26113963130176
H           14.23406582862725       -6.65005397222090       -5.58707019337831
H           12.80103446631259       -6.47914921099362       -6.60161018740934

          :  Hamiltonian                  GFN2-xTB          :
         :: total energy             -42.595872967308 Eh    ::
         :: gradient norm              0.000079800173 Eh/a0 ::
         :: HOMO-LUMO gap              9.794914092652 eV    ::
         :: SCC energy               -43.221224727318 Eh    ::
         :: -> dispersion             -0.024822764834 Eh    ::
         :: -> Gsolv                  -0.118785212179 Eh    ::
         :: repulsion energy           0.625670098237 Eh    ::

    * Orbital Energies and Occupations

         #    Occupation            Energy/Eh            Energy/eV
      -------------------------------------------------------------
         1        2.0000           -0.6923814             -18.8407
       ...           ...                  ...                  ...
        28        2.0000           -0.4624008             -12.5826
        29        2.0000           -0.4493806             -12.2283
        30        2.0000           -0.4488583             -12.2141
        31        2.0000           -0.4397553             -11.9663
        32        2.0000           -0.4364033             -11.8751
        33        2.0000           -0.4357962             -11.8586
        34        2.0000           -0.4300473             -11.7022
        35        2.0000           -0.4264275             -11.6037
        36        2.0000           -0.4262123             -11.5978
        37        2.0000           -0.4198242             -11.4240
        38        2.0000           -0.4166760             -11.3383
        39        2.0000           -0.4161755             -11.3247
        40        2.0000           -0.4118922             -11.2082 (HOMO)
        41                         -0.0519357              -1.4132 (LUMO)
        42                          0.0317058               0.8628
        43                          0.0545954               1.4856
        44                          0.0764605               2.0806
        45                          0.0954911               2.5984
        46                          0.1022755               2.7831
        47                          0.1065261               2.8987
        48                          0.1120772               3.0498
        49                          0.1138171               3.0971
        50                          0.1211572               3.2969
        51                          0.1255160               3.4155
       ...                                ...                  ...
        80                          0.3261884               8.8760
      -------------------------------------------------------------
                  HL-Gap            0.3599565 Eh            9.7949 eV

     #   Z          covCN         q      C6AA      α(0)
     1   7 N        3.485    -0.162    24.493     7.350
     2   6 C        3.732    -0.038    21.345     6.594
     3   6 C        3.803    -0.086    22.137     6.698
     4   6 C        3.804    -0.071    21.852     6.655
     5   6 C        3.803    -0.067    21.786     6.645
     6   6 C        3.803    -0.065    21.738     6.638
     7   6 C        3.803    -0.063    21.712     6.634
     8   6 C        3.803    -0.062    21.695     6.631
     9   6 C        3.803    -0.062    21.689     6.630
    10   6 C        3.803    -0.062    21.688     6.630
    11   6 C        3.803    -0.063    21.702     6.632
    12   6 C        3.801    -0.058    21.609     6.618
    13   6 C        3.752    -0.110    22.673     6.790
    14   1 H        0.859     0.316     0.667     1.280
    15   1 H        0.859     0.309     0.688     1.300
    16   1 H        0.859     0.309     0.688     1.299
    17   1 H        0.925     0.107     1.723     2.052
    18   1 H        0.925     0.107     1.722     2.052
    19   1 H        0.924     0.066     2.127     2.281
    20   1 H        0.924     0.066     2.126     2.280
    21   1 H        0.924     0.043     2.408     2.427
    22   1 H        0.924     0.043     2.408     2.427
    23   1 H        0.924     0.037     2.493     2.469
    24   1 H        0.924     0.037     2.493     2.469
    25   1 H        0.924     0.031     2.568     2.506
    26   1 H        0.924     0.031     2.568     2.506
    27   1 H        0.924     0.031     2.576     2.510
    28   1 H        0.924     0.031     2.576     2.510
    29   1 H        0.924     0.030     2.592     2.518
    30   1 H        0.924     0.030     2.592     2.518
    31   1 H        0.924     0.030     2.586     2.515
    32   1 H        0.924     0.030     2.586     2.515
    33   1 H        0.924     0.029     2.598     2.521
    34   1 H        0.924     0.029     2.598     2.521
    35   1 H        0.924     0.031     2.577     2.510
    36   1 H        0.924     0.031     2.577     2.510
    37   1 H        0.924     0.030     2.592     2.517
    38   1 H        0.924     0.030     2.591     2.517
    39   1 H        0.925     0.036     2.506     2.475
    40   1 H        0.925     0.035     2.516     2.481
    41   1 H        0.925     0.036     2.506     2.475

Wiberg/Mayer (AO) data.
largest (>0.10) Wiberg bond orders for each atom

     #   Z sym  total        # sym  WBO       # sym  WBO       # sym  WBO
 ---------------------------------------------------------------------------
     1   7 N    3.653 --     2 C    0.966    15 H    0.890    16 H    0.890
                            14 H    0.887
     2   6 C    3.927 --     3 C    1.011    17 H    0.966    18 H    0.966
                             1 N    0.966
     3   6 C    3.990 --     2 C    1.011     4 C    1.004    19 H    0.973
                            20 H    0.973
     4   6 C    3.995 --     5 C    1.007     3 C    1.004    21 H    0.977
                            22 H    0.977
     5   6 C    3.996 --     4 C    1.007     6 C    1.007    24 H    0.977
                            23 H    0.977
     6   6 C    3.996 --     5 C    1.007     7 C    1.007    25 H    0.977
                            26 H    0.977
     7   6 C    3.996 --     8 C    1.007     6 C    1.007    28 H    0.977
                            27 H    0.977
     8   6 C    3.996 --     9 C    1.007     7 C    1.007    29 H    0.978
                            30 H    0.978
     9   6 C    3.997 --    10 C    1.007     8 C    1.007    31 H    0.977
                            32 H    0.977
    10   6 C    3.997 --    11 C    1.007     9 C    1.007    33 H    0.978
                            34 H    0.978
    11   6 C    3.997 --    12 C    1.008    10 C    1.007    36 H    0.977
                            35 H    0.977
    12   6 C    3.997 --    13 C    1.019    11 C    1.008    37 H    0.979
                            38 H    0.979
    13   6 C    3.996 --    12 C    1.019    39 H    0.988    41 H    0.988
                            40 H    0.987
    14   1 H    0.900 --     1 N    0.887
    15   1 H    0.905 --     1 N    0.890
    16   1 H    0.905 --     1 N    0.890
    17   1 H    0.989 --     2 C    0.966
    18   1 H    0.989 --     2 C    0.966
    19   1 H    0.996 --     3 C    0.973
    20   1 H    0.996 --     3 C    0.973
    21   1 H    0.998 --     4 C    0.977
    22   1 H    0.998 --     4 C    0.977
    23   1 H    0.999 --     5 C    0.977
    24   1 H    0.999 --     5 C    0.977
    25   1 H    0.999 --     6 C    0.977
    26   1 H    0.999 --     6 C    0.977
    27   1 H    0.999 --     7 C    0.977
    28   1 H    0.999 --     7 C    0.977
    29   1 H    0.999 --     8 C    0.978
    30   1 H    0.999 --     8 C    0.978
    31   1 H    0.999 --     9 C    0.977
    32   1 H    0.999 --     9 C    0.977
    33   1 H    0.999 --    10 C    0.978
    34   1 H    0.999 --    10 C    0.978
    35   1 H    0.999 --    11 C    0.977
    36   1 H    0.999 --    11 C    0.977
    37   1 H    0.999 --    12 C    0.979
    38   1 H    0.999 --    12 C    0.979
    39   1 H    0.999 --    13 C    0.988
    40   1 H    0.998 --    13 C    0.987
    41   1 H    0.999 --    13 C    0.988
 ---------------------------------------------------------------------------

molecular dipole:
                 x           y           z       tot (Debye)
 q only:        1.596       0.048       0.194
   full:        1.639      -0.021       0.134       4.181

           -------------------------------------------------
          | TOTAL ENERGY              -42.595872967308 Eh   |
          | GRADIENT NORM               0.000079800173 Eh/α |
          | HOMO-LUMO GAP               9.794914092652 eV   |
           -------------------------------------------------

 * finished run on 2023/01/24 at 14:57:53.691
