   * xtb version 6.5.1 (fef0646) compiled by 'conda@b96dff2e9fd6' on 2023-01-04
          program call               : xtb init.xyz --opt -c 1 -u 0 -P 16 --alpb water

   ID    Z sym.   atoms
    1    7 N      1, 6
    2    6 C      2-5, 7-18
    3    1 H      19-39

      * Solvation model:               ALPB
        Solvent                        water
        Solvent mass                       1.8000E+01 g/mol
          :  Hamiltonian                  GFN2-xTB          :
 * total energy  :   -50.2349738 Eh     change       -0.5925145E-09 Eh
 * total energy  :   -50.2869873 Eh     change       -0.5201350E-01 Eh
 * total energy  :   -50.3288213 Eh     change       -0.4183395E-01 Eh
 * total energy  :   -50.3494300 Eh     change       -0.2060873E-01 Eh
 * total energy  :   -50.3611631 Eh     change       -0.1173313E-01 Eh
 * total energy  :   -50.3672590 Eh     change       -0.6095867E-02 Eh
 * total energy  :   -50.3699611 Eh     change       -0.2702134E-02 Eh
 * total energy  :   -50.3715427 Eh     change       -0.1581620E-02 Eh
 * total energy  :   -50.3725558 Eh     change       -0.1013089E-02 Eh
 * total energy  :   -50.3733242 Eh     change       -0.7683186E-03 Eh
 * total energy  :   -50.3809653 Eh     change       -0.4100399E-04 Eh
 * total energy  :   -50.3809805 Eh     change       -0.1512089E-04 Eh
 * total energy  :   -50.3809887 Eh     change       -0.8195125E-05 Eh
 * total energy  :   -50.3809952 Eh     change       -0.6572674E-05 Eh
 * total energy  :   -50.3810073 Eh     change       -0.1211374E-04 Eh
 * total energy  :   -50.3810243 Eh     change       -0.1698754E-04 Eh
 * total energy  :   -50.3810358 Eh     change       -0.1144555E-04 Eh
 * total energy  :   -50.3810432 Eh     change       -0.7412101E-05 Eh
 * total energy  :   -50.3810477 Eh     change       -0.4508661E-05 Eh
   *** GEOMETRY OPTIMIZATION CONVERGED AFTER 44 ITERATIONS ***

 final structure:
================
39
 xtb: 6.5.1 (fef0646)
N           14.83301519667909        0.43725702794842        1.12825675924013
C           14.48028002628872        1.46414768399798        2.13875406489747
C           14.00368507823224        2.74106178890217        1.45674496922530
C           13.63154793098776        3.80211123189089        2.49028600371386
C           13.03503820125126        5.05380330597482        1.83644748363857
N           11.76018934698102        4.76505650296058        1.21541323442134
C           11.53920170380741        5.07465173787624       -0.19705394350294
C            9.95427081852474        4.85125258413027       -0.34720438991596
C           10.06006549317455        3.46797394908020       -0.86798022523416
C           10.56872067821045        3.35657788723589       -2.13874854463269
C           12.01506336222911        3.36011526543835       -2.05657903454420
C           12.42325042540974        4.22979898476187       -1.10837421784437
C           10.58414147421346        4.89111673890218        1.91997995218893
C            9.47816297838612        4.97060655673068        1.06194729925113
C            8.20070354875296        5.08127486883762        1.55584990700704
C            8.01692968077104        5.12334222535857        2.93457097769102
C            9.10668787636954        5.04346547541526        3.78404506041238
C           10.39973111376704        4.92366694164014        3.29488689425904
H           15.13969404444105       -0.43103674027749        1.58110601302645
H           15.58871766463323        0.78054832720891        0.52374229990222
H           14.01779553325395        0.23183135943998        0.53865136592578
H           15.35457366816032        1.67734376281282        2.75367008666103
H           13.69164715200437        1.07597925308527        2.78295394642865
H           13.12452666485735        2.53927166066440        0.84297454537327
H           14.78926977638406        3.13889978580715        0.81322579681868
H           14.51163057266977        4.09850185279938        3.06221110128584
H           12.89703129482767        3.39262502673177        3.18428479633834
H           13.71703057119473        5.43834908968095        1.07592770483465
H           12.90895985008821        5.83583748121658        2.59567467506883
H           11.78759471670240        6.13768247910341       -0.37933395743782
H            9.50567981087767        5.55309642131623       -1.04953497453981
H           10.48793868321649        2.79988871393631       -0.12435967690821
H           10.11652997693121        3.87846683451836       -2.97349593644972
H           12.69431286386286        2.92030431436608       -2.77182573158726
H           13.47463274604352        4.47216039216870       -1.03262987723482
H            7.35472377558290        5.14292469706542        0.88653536994213
H            7.02133720013884        5.22145769627008        3.34106821354431
H            8.94953619091926        5.07952605767082        4.85253695992847
H           11.22957230917242        4.87365077733575        3.98133502880762

          :  Hamiltonian                  GFN2-xTB          :
         :: total energy             -50.381047700723 Eh    ::
         :: gradient norm              0.000421678909 Eh/a0 ::
         :: HOMO-LUMO gap              1.900708999824 eV    ::
         :: SCC energy               -51.196842984854 Eh    ::
         :: -> dispersion             -0.039365318143 Eh    ::
         :: -> Gsolv                  -0.124848030363 Eh    ::
         :: repulsion energy           0.815087258822 Eh    ::

    * Orbital Energies and Occupations

         #    Occupation            Energy/Eh            Energy/eV
      -------------------------------------------------------------
         1        2.0000           -0.6909066             -18.8005
       ...           ...                  ...                  ...
        35        2.0000           -0.4598555             -12.5133
        36        2.0000           -0.4519647             -12.2986
        37        2.0000           -0.4473899             -12.1741
        38        2.0000           -0.4418913             -12.0245
        39        2.0000           -0.4362934             -11.8721
        40        2.0000           -0.4321396             -11.7591
        41        2.0000           -0.4275792             -11.6350
        42        2.0000           -0.4164306             -11.3317
        43        2.0000           -0.4141198             -11.2688
        44        2.0000           -0.4065083             -11.0617
        45        2.0000           -0.3926296             -10.6840
        46        2.0000           -0.3451388              -9.3917
        47        2.0000           -0.3374127              -9.1815 (HOMO)
        48                         -0.2675629              -7.2808 (LUMO)
        49                         -0.2139265              -5.8212
        50                         -0.2081634              -5.6644
        51                         -0.2022648              -5.5039
        52                         -0.0831294              -2.2621
        53                         -0.0495201              -1.3475
        54                         -0.0034590              -0.0941
        55                          0.0080412               0.2188
        56                          0.0489223               1.3312
        57                          0.0690541               1.8791
        58                          0.0754888               2.0542
       ...                                ...                  ...
        93                          0.6987692              19.0145
      -------------------------------------------------------------
                  HL-Gap            0.0698498 Eh            1.9007 eV

     #   Z          covCN         q      C6AA      α(0)
     1   7 N        3.485    -0.162    24.492     7.350
     2   6 C        3.733    -0.038    21.352     6.595
     3   6 C        3.803    -0.085    22.111     6.694
     4   6 C        3.804    -0.076    21.956     6.671
     5   6 C        3.742    -0.004    20.724     6.495
     6   7 N        2.762    -0.113    23.462     7.194
     7   6 C        3.887     0.041    19.836     6.332
     8   6 C        3.894    -0.010    20.693     6.467
     9   6 C        3.015    -0.050    29.226     8.868
    10   6 C        2.957    -0.075    29.861     8.963
    11   6 C        2.947    -0.027    28.687     8.785
    12   6 C        2.946    -0.053    29.307     8.879
    13   6 C        2.980     0.058    26.690     8.474
    14   6 C        3.015    -0.023    28.569     8.768
    15   6 C        2.915    -0.042    29.052     8.839
    16   6 C        2.921    -0.054    29.336     8.882
    17   6 C        2.922    -0.041    29.008     8.832
    18   6 C        2.914    -0.068    29.706     8.937
    19   1 H        0.859     0.316     0.668     1.280
    20   1 H        0.859     0.310     0.684     1.296
    21   1 H        0.859     0.308     0.689     1.301
    22   1 H        0.925     0.109     1.708     2.044
    23   1 H        0.925     0.107     1.722     2.052
    24   1 H        0.924     0.070     2.090     2.261
    25   1 H        0.924     0.068     2.102     2.268
    26   1 H        0.924     0.055     2.261     2.352
    27   1 H        0.924     0.054     2.265     2.353
    28   1 H        0.924     0.054     2.270     2.356
    29   1 H        0.924     0.034     2.534     2.489
    30   1 H        0.922     0.021     2.717     2.578
    31   1 H        0.925     0.034     2.535     2.490
    32   1 H        0.925     0.045     2.388     2.417
    33   1 H        0.925     0.021     2.713     2.576
    34   1 H        0.926     0.059     2.205     2.322
    35   1 H        0.925     0.066     2.129     2.281
    36   1 H        0.926     0.018     2.762     2.599
    37   1 H        0.926     0.013     2.839     2.635
    38   1 H        0.926     0.022     2.698     2.569
    39   1 H        0.926     0.037     2.486     2.466

Wiberg/Mayer (AO) data.
largest (>0.10) Wiberg bond orders for each atom

     #   Z sym  total        # sym  WBO       # sym  WBO       # sym  WBO
 ---------------------------------------------------------------------------
     1   7 N    3.653 --     2 C    0.967    21 H    0.890    20 H    0.889
                            19 H    0.887
     2   6 C    3.927 --     3 C    1.011     1 N    0.967    23 H    0.966
                            22 H    0.966
     3   6 C    3.990 --     2 C    1.011     4 C    1.006    25 H    0.972
                            24 H    0.968
     4   6 C    3.992 --     3 C    1.006     5 C    0.996    26 H    0.974
                            27 H    0.973
     5   6 C    3.974 --     4 C    0.996     6 N    0.990    28 H    0.969
                            29 H    0.967
     6   7 N    3.371 --    13 C    1.146     5 C    0.990     7 C    0.973
     7   6 C    3.976 --    12 C    1.020     6 N    0.973    30 H    0.948
                             8 C    0.898
     8   6 C    3.991 --     9 C    1.029    14 C    1.006    31 H    0.963
                             7 C    0.898
     9   6 C    3.960 --    10 C    1.747     8 C    1.029    32 H    0.962
                            12 C    0.114
    10   6 C    3.948 --     9 C    1.747    11 C    1.120    33 H    0.946
    11   6 C    3.978 --    12 C    1.808    10 C    1.120    34 H    0.959
    12   6 C    3.982 --    11 C    1.808     7 C    1.020    35 H    0.955
                             9 C    0.114
    13   6 C    3.977 --    18 C    1.365    14 C    1.290     6 N    1.146
    14   6 C    3.984 --    15 C    1.464    13 C    1.290     8 C    1.006
                            17 C    0.101
    15   6 C    3.991 --    14 C    1.464    16 C    1.400    36 H    0.970
    16   6 C    3.987 --    17 C    1.449    15 C    1.400    37 H    0.972
    17   6 C    3.991 --    16 C    1.449    18 C    1.431    38 H    0.972
                            14 C    0.101
    18   6 C    3.984 --    17 C    1.431    13 C    1.365    39 H    0.966
    19   1 H    0.900 --     1 N    0.887
    20   1 H    0.904 --     1 N    0.889
    21   1 H    0.905 --     1 N    0.890
    22   1 H    0.988 --     2 C    0.966
    23   1 H    0.989 --     2 C    0.966
    24   1 H    0.995 --     3 C    0.968
    25   1 H    0.995 --     3 C    0.972
    26   1 H    0.996 --     4 C    0.974
    27   1 H    0.997 --     4 C    0.973
    28   1 H    0.996 --     5 C    0.969
    29   1 H    0.998 --     5 C    0.967
    30   1 H    1.000 --     7 C    0.948
    31   1 H    0.999 --     8 C    0.963
    32   1 H    0.998 --     9 C    0.962
    33   1 H    0.999 --    10 C    0.946
    34   1 H    0.995 --    11 C    0.959
    35   1 H    0.995 --    12 C    0.955
    36   1 H    0.999 --    15 C    0.970
    37   1 H    0.999 --    16 C    0.972
    38   1 H    0.999 --    17 C    0.972
    39   1 H    0.998 --    18 C    0.966
 ---------------------------------------------------------------------------

molecular dipole:
                 x           y           z       tot (Debye)
 q only:       29.260       1.071       2.027
   full:       29.084       1.487       1.953      74.188

           -------------------------------------------------
          | TOTAL ENERGY              -50.381047700723 Eh   |
          | GRADIENT NORM               0.000421678909 Eh/α |
          | HOMO-LUMO GAP               1.900708999824 eV   |
           -------------------------------------------------

 * finished run on 2023/01/24 at 14:58:02.882
