   * xtb version 6.5.1 (fef0646) compiled by 'conda@b96dff2e9fd6' on 2023-01-04
          program call               : xtb init.xyz --opt -c 1 -u 0 -P 16

   ID    Z sym.   atoms
    1    7 N      1
    2    6 C      2-10
    3    1 H      11-24

          :  Hamiltonian                  GFN2-xTB          :
 * total energy  :   -28.8811288 Eh     change       -0.2341984E-09 Eh
 * total energy  :   -28.8833875 Eh     change       -0.2258751E-02 Eh
 * total energy  :   -28.8836824 Eh     change       -0.2948750E-03 Eh
 * total energy  :   -28.8837643 Eh     change       -0.8191140E-04 Eh
 * total energy  :   -28.8838291 Eh     change       -0.6477072E-04 Eh
 * total energy  :   -28.8838607 Eh     change       -0.3163872E-04 Eh
 * total energy  :   -28.8839236 Eh     change       -0.6285046E-04 Eh
 * total energy  :   -28.8840297 Eh     change       -0.1061015E-03 Eh
 * total energy  :   -28.8840886 Eh     change       -0.5895858E-04 Eh
 * total energy  :   -28.8841596 Eh     change       -0.7094164E-04 Eh
 * total energy  :   -28.8842519 Eh     change       -0.2169220E-04 Eh
 * total energy  :   -28.8842759 Eh     change       -0.2405815E-04 Eh
 * total energy  :   -28.8843042 Eh     change       -0.2827675E-04 Eh
 * total energy  :   -28.8843370 Eh     change       -0.3283758E-04 Eh
 * total energy  :   -28.8843666 Eh     change       -0.2952106E-04 Eh
 * total energy  :   -28.8843865 Eh     change       -0.1995408E-04 Eh
 * total energy  :   -28.8843963 Eh     change       -0.9780622E-05 Eh
 * total energy  :   -28.8844014 Eh     change       -0.5124897E-05 Eh
 * total energy  :   -28.8844059 Eh     change       -0.4474120E-05 Eh
   *** GEOMETRY OPTIMIZATION CONVERGED AFTER 21 ITERATIONS ***

 final structure:
================
24
 xtb: 6.5.1 (fef0646)
N            0.88131248368763        2.32216541182728        0.35539998547341
C            2.37528234682575        2.23012524623746        0.29591984148973
C            2.86045839480379        0.94002280842376        0.93903481945954
C            4.39350343972565        0.95276611364833        1.04575013918610
C            4.86831944610481        2.04631224542085        1.96738151752085
C            4.70578402734874        1.91625093027462        3.34197178369096
C            5.12311564416412        2.91959479516670        4.19793831885690
C            5.71023377383673        4.06643634807731        3.68875673563045
C            5.87942134662217        4.20346726189697        2.32195987730124
C            5.45679724491680        3.20006584120212        1.46604513495182
H            0.53988797460941        3.18443272465783       -0.08656561077881
H            0.57534030820136        2.30857736696466        1.33724905851669
H            0.46209017275109        1.51391185484257       -0.12296439481032
H            2.79969591651451        3.08465484036678        0.82605263633313
H            2.68323913419881        2.27603946549091       -0.74897847614394
H            2.54476665557468        0.07786187712011        0.34993104690316
H            2.44473093642802        0.84852231338626        1.94431668854254
H            4.82720401500311        1.08331224377173        0.05390733199150
H            4.71909433262689       -0.01397233345902        1.43073307203427
H            4.26658925377551        1.01490675324355        3.74519717466996
H            5.00006231419970        2.80184876577190        5.26368351734661
H            6.04426130229909        4.84526977288706        4.35625960088117
H            6.34777170220509        5.08864017222749        1.92018966631399
H            5.60442783357744        3.30700718055367        0.40008053463887

          :  Hamiltonian                  GFN2-xTB          :
         :: total energy             -28.884405891992 Eh    ::
         :: gradient norm              0.000865353303 Eh/a0 ::
         :: HOMO-LUMO gap              4.773268398983 eV    ::
         :: SCC energy               -29.382026110506 Eh    ::
         :: -> dispersion             -0.017465104707 Eh    ::
         :: repulsion energy           0.497461830488 Eh    ::

    * Orbital Energies and Occupations

         #    Occupation            Energy/Eh            Energy/eV
      -------------------------------------------------------------
         1        2.0000           -0.8959045             -24.3788
       ...           ...                  ...                  ...
        15        2.0000           -0.6334585             -17.2373
        16        2.0000           -0.6224298             -16.9372
        17        2.0000           -0.6129175             -16.6783
        18        2.0000           -0.6010237             -16.3547
        19        2.0000           -0.5920782             -16.1113
        20        2.0000           -0.5762395             -15.6803
        21        2.0000           -0.5735285             -15.6065
        22        2.0000           -0.5699354             -15.5087
        23        2.0000           -0.5675209             -15.4430
        24        2.0000           -0.5227499             -14.2247
        25        2.0000           -0.5189620             -14.1217
        26        2.0000           -0.5033707             -13.6974
        27        2.0000           -0.4998049             -13.6004 (HOMO)
        28                         -0.3243906              -8.8271 (LUMO)
        29                         -0.3218130              -8.7570
        30                         -0.2643290              -7.1928
        31                         -0.1941952              -5.2843
        32                         -0.1603534              -4.3634
        33                         -0.1009625              -2.7473
        34                         -0.1002419              -2.7277
        35                         -0.0514234              -1.3993
        36                         -0.0258204              -0.7026
        37                         -0.0110014              -0.2994
        38                         -0.0028944              -0.0788
       ...                                ...                  ...
        54                          0.5647834              15.3685
      -------------------------------------------------------------
                  HL-Gap            0.1754144 Eh            4.7733 eV

     #   Z          covCN         q      C6AA      α(0)
     1   7 N        3.483    -0.128    23.762     7.240
     2   6 C        3.732    -0.035    21.284     6.585
     3   6 C        3.803    -0.077    21.973     6.674
     4   6 C        3.809    -0.074    21.912     6.663
     5   6 C        2.970    -0.002    28.068     8.690
     6   6 C        2.924    -0.042    29.041     8.838
     7   6 C        2.919    -0.027    28.682     8.782
     8   6 C        2.920    -0.027    28.672     8.781
     9   6 C        2.919    -0.028    28.699     8.785
    10   6 C        2.924    -0.046    29.140     8.853
    11   1 H        0.859     0.269     0.812     1.412
    12   1 H        0.859     0.272     0.804     1.405
    13   1 H        0.859     0.272     0.804     1.405
    14   1 H        0.924     0.112     1.682     2.028
    15   1 H        0.924     0.106     1.731     2.058
    16   1 H        0.924     0.061     2.183     2.311
    17   1 H        0.924     0.062     2.170     2.304
    18   1 H        0.924     0.055     2.262     2.352
    19   1 H        0.924     0.072     2.060     2.244
    20   1 H        0.926     0.034     2.532     2.489
    21   1 H        0.926     0.046     2.370     2.407
    22   1 H        0.926     0.049     2.337     2.390
    23   1 H        0.926     0.046     2.377     2.411
    24   1 H        0.925     0.030     2.586     2.515

Wiberg/Mayer (AO) data.
largest (>0.10) Wiberg bond orders for each atom

     #   Z sym  total        # sym  WBO       # sym  WBO       # sym  WBO
 ---------------------------------------------------------------------------
     1   7 N    3.675 --     2 C    0.918    11 H    0.913    13 H    0.910
                            12 H    0.910
     2   6 C    3.882 --     3 C    1.009    15 H    0.967    14 H    0.961
                             1 N    0.918
     3   6 C    3.981 --     2 C    1.009     4 C    0.983    16 H    0.974
                            17 H    0.971
     4   6 C    3.986 --     5 C    1.006     3 C    0.983    18 H    0.974
                            19 H    0.965
     5   6 C    3.987 --    10 C    1.417     6 C    1.411     4 C    1.006
                             8 C    0.110
     6   6 C    3.992 --     7 C    1.448     5 C    1.411    20 H    0.969
                             9 C    0.112
     7   6 C    3.991 --     6 C    1.448     8 C    1.435    21 H    0.970
                            10 C    0.110
     8   6 C    3.991 --     9 C    1.443     7 C    1.435    22 H    0.970
                             5 C    0.110
     9   6 C    3.991 --     8 C    1.443    10 C    1.439    23 H    0.970
                             6 C    0.112
    10   6 C    3.991 --     9 C    1.439     5 C    1.417    24 H    0.969
                             7 C    0.110
    11   1 H    0.927 --     1 N    0.913
    12   1 H    0.926 --     1 N    0.910
    13   1 H    0.926 --     1 N    0.910
    14   1 H    0.988 --     2 C    0.961
    15   1 H    0.989 --     2 C    0.967
    16   1 H    0.996 --     3 C    0.974
    17   1 H    0.996 --     3 C    0.971
    18   1 H    0.997 --     4 C    0.974
    19   1 H    0.994 --     4 C    0.965
    20   1 H    0.999 --     6 C    0.969
    21   1 H    0.998 --     7 C    0.970
    22   1 H    0.997 --     8 C    0.970
    23   1 H    0.998 --     9 C    0.970
    24   1 H    0.999 --    10 C    0.969
 ---------------------------------------------------------------------------

molecular dipole:
                 x           y           z       tot (Debye)
 q only:        2.662       4.297       1.047
   full:        2.406       4.329       1.006      12.844

           -------------------------------------------------
          | TOTAL ENERGY              -28.884405891992 Eh   |
          | GRADIENT NORM               0.000865353303 Eh/α |
          | HOMO-LUMO GAP               4.773268398983 eV   |
           -------------------------------------------------

 * finished run on 2023/01/23 at 14:13:28.147
