   * xtb version 6.5.1 (fef0646) compiled by 'conda@b96dff2e9fd6' on 2023-01-04
          program call               : xtb init.xyz --opt -c 0 -u 0 -P 16 --input xtb.inp

   ID    Z sym.   atoms
    1    7 N      1
    2    6 C      2-5
    3    8 O      6
    4   17 Cl     7
    5    1 H      8-19

          :  Hamiltonian                  GFN2-xTB          :
 * total energy  :   -26.1854218 Eh     change       -0.6519016E-09 Eh
 * total energy  :   -26.1960662 Eh     change       -0.1064439E-01 Eh
 * total energy  :   -26.2004532 Eh     change       -0.4387003E-02 Eh
 * total energy  :   -26.2037118 Eh     change       -0.3258614E-02 Eh
 * total energy  :   -26.2060755 Eh     change       -0.2363688E-02 Eh
 * total energy  :   -26.2082077 Eh     change       -0.2132165E-02 Eh
 * total energy  :   -26.2088055 Eh     change       -0.5977788E-03 Eh
 * total energy  :   -26.2091045 Eh     change       -0.2990196E-03 Eh
 * total energy  :   -26.2092006 Eh     change       -0.9606016E-04 Eh
 * total energy  :   -26.2092755 Eh     change       -0.7489883E-04 Eh
 * total energy  :   -26.2094477 Eh     change       -0.1406548E-04 Eh
 * total energy  :   -26.2094594 Eh     change       -0.1170832E-04 Eh
 * total energy  :   -26.2094828 Eh     change       -0.2346289E-04 Eh
 * total energy  :   -26.2094916 Eh     change       -0.8799515E-05 Eh
 * total energy  :   -26.2095042 Eh     change       -0.1251673E-04 Eh
 * total energy  :   -26.2095137 Eh     change       -0.9496480E-05 Eh
 * total energy  :   -26.2095187 Eh     change       -0.5070061E-05 Eh
 * total energy  :   -26.2095196 Eh     change       -0.8208755E-06 Eh
 * total energy  :   -26.2095212 Eh     change       -0.1599378E-05 Eh
   *** GEOMETRY OPTIMIZATION CONVERGED AFTER 22 ITERATIONS ***

 final structure:
================
19
 xtb: 6.5.1 (fef0646)
N            1.07957679175529        0.13617445185547        0.48853593357699
C            2.54003303858954        0.06793237144710        0.50786693516954
C            3.00321088137950       -1.31421233600183        0.05638397805753
C            4.52268608255719       -1.39128895816423       -0.04884369115914
C            4.98898145795991       -2.78153605447115       -0.48656347477794
O            6.39019980062430       -2.88446103277358       -0.56086843231058
Cl           0.12814547280179       -0.36651954707400       -2.24138653778378
H            0.74948018490260        1.05022475612821        0.77763169901922
H            0.67844672376941       -0.56591319325201        1.10171800630010
H            0.57287815378651       -0.13187016195353       -0.96539360900311
H            2.95131445769809        0.28780864632574        1.50348054240725
H            2.91081997065342        0.82473581892969       -0.18736267770249
H            2.55463633833977       -1.53205935588697       -0.91321919464888
H            2.64958897014483       -2.06509078673441        0.76635437331602
H            4.97882726138395       -1.15610672044360        0.91540707777638
H            4.87368488436352       -0.65163660328305       -0.77388301230126
H            4.52982758866949       -3.03723973696880       -1.45236899476578
H            4.68296448965431       -3.53025650195253        0.24771332480144
H            6.71491745096716       -2.24165505572664       -1.20126224597118

          :  Hamiltonian                  GFN2-xTB          :
         :: total energy             -26.209521152788 Eh    ::
         :: gradient norm              0.000161162777 Eh/a0 ::
         :: HOMO-LUMO gap              9.169112376707 eV    ::
         :: SCC energy               -26.454764134054 Eh    ::
         :: -> dispersion             -0.010663329177 Eh    ::
         :: repulsion energy           0.245219382265 Eh    ::

    * Orbital Energies and Occupations

         #    Occupation            Energy/Eh            Energy/eV
      -------------------------------------------------------------
         1        2.0000           -1.0200452             -27.7568
       ...           ...                  ...                  ...
        11        2.0000           -0.5396245             -14.6839
        12        2.0000           -0.5216286             -14.1942
        13        2.0000           -0.5128146             -13.9544
        14        2.0000           -0.5043920             -13.7252
        15        2.0000           -0.4858246             -13.2200
        16        2.0000           -0.4732711             -12.8784
        17        2.0000           -0.4651351             -12.6570
        18        2.0000           -0.4548321             -12.3766
        19        2.0000           -0.4405023             -11.9867
        20        2.0000           -0.4149733             -11.2920
        21        2.0000           -0.4030184             -10.9667
        22        2.0000           -0.3972236             -10.8090
        23        2.0000           -0.3971663             -10.8074 (HOMO)
        24                         -0.0602076              -1.6383 (LUMO)
        25                          0.0026762               0.0728
        26                          0.0509174               1.3855
        27                          0.0636989               1.7333
        28                          0.0642368               1.7480
        29                          0.0696554               1.8954
        30                          0.0697393               1.8977
        31                          0.0699789               1.9042
        32                          0.0893308               2.4308
        33                          0.1055292               2.8716
        34                          0.1232717               3.3544
       ...                                ...                  ...
        45                          0.2937247               7.9927
      -------------------------------------------------------------
                  HL-Gap            0.3369587 Eh            9.1691 eV

     #   Z          covCN         q      C6AA      α(0)
     1   7 N        2.692    -0.306    27.877     7.842
     2   6 C        3.732     0.007    20.549     6.470
     3   6 C        3.804    -0.077    21.962     6.672
     4   6 C        3.801    -0.073    21.901     6.663
     5   6 C        3.675     0.078    19.495     6.327
     6   8 O        1.655    -0.439    21.624     6.277
     7  17 Cl       0.838    -0.484   115.106    16.413
     8   1 H        0.860     0.167     1.290     1.779
     9   1 H        0.860     0.168     1.285     1.776
    10   1 H        0.898     0.332     0.622     1.234
    11   1 H        0.923     0.027     2.630     2.536
    12   1 H        0.924     0.054     2.274     2.358
    13   1 H        0.924     0.064     2.148     2.292
    14   1 H        0.924     0.041     2.441     2.443
    15   1 H        0.924     0.045     2.381     2.413
    16   1 H        0.924     0.037     2.495     2.470
    17   1 H        0.923     0.023     2.695     2.567
    18   1 H        0.924     0.050     2.326     2.385
    19   1 H        0.805     0.287     0.761     1.370

Wiberg/Mayer (AO) data.
largest (>0.10) Wiberg bond orders for each atom

     #   Z sym  total        # sym  WBO       # sym  WBO       # sym  WBO
 ---------------------------------------------------------------------------
     1   7 N    3.236 --     2 C    1.006     8 H    0.959     9 H    0.958
                            10 H    0.204
     2   6 C    3.975 --     3 C    1.006     1 N    1.006    12 H    0.974
                            11 H    0.972
     3   6 C    3.993 --     4 C    1.007     2 C    1.006    14 H    0.976
                            13 H    0.972
     4   6 C    3.996 --     3 C    1.007     5 C    0.996    15 H    0.977
                            16 H    0.976
     5   6 C    3.957 --     6 O    1.002     4 C    0.996    18 H    0.973
                            17 H    0.970
     6   8 O    1.962 --     5 C    1.002    19 H    0.903
     7  17 Cl   0.769 --    10 H    0.681
     8   1 H    0.972 --     1 N    0.959
     9   1 H    0.972 --     1 N    0.958
    10   1 H    0.890 --     7 Cl   0.681     1 N    0.204
    11   1 H    0.999 --     2 C    0.972
    12   1 H    0.997 --     2 C    0.974
    13   1 H    0.996 --     3 C    0.972
    14   1 H    0.998 --     3 C    0.976
    15   1 H    0.998 --     4 C    0.977
    16   1 H    0.999 --     4 C    0.976
    17   1 H    0.999 --     5 C    0.970
    18   1 H    0.998 --     5 C    0.973
    19   1 H    0.918 --     6 O    0.903
 ---------------------------------------------------------------------------

molecular dipole:
                 x           y           z       tot (Debye)
 q only:        0.474       0.626       1.496
   full:        0.231       0.818       1.318       3.986

           -------------------------------------------------
          | TOTAL ENERGY              -26.209521152788 Eh   |
          | GRADIENT NORM               0.000161162777 Eh/α |
          | HOMO-LUMO GAP               9.169112376707 eV   |
           -------------------------------------------------

 * finished run on 2023/01/23 at 20:51:48.676
