   * xtb version 6.5.1 (fef0646) compiled by 'conda@b96dff2e9fd6' on 2023-01-04
          program call               : xtb init.xyz --opt -c 1 -u 0 -P 16

   ID    Z sym.   atoms
    1    7 N      1
    2    6 C      2-10
    3    1 H      11-22

          :  Hamiltonian                  GFN2-xTB          :
 * total energy  :   -27.8325785 Eh     change       -0.9342926E-10 Eh
 * total energy  :   -27.8349193 Eh     change       -0.2340874E-02 Eh
 * total energy  :   -27.8353107 Eh     change       -0.3913116E-03 Eh
 * total energy  :   -27.8354292 Eh     change       -0.1185032E-03 Eh
 * total energy  :   -27.8355012 Eh     change       -0.7206631E-04 Eh
 * total energy  :   -27.8355397 Eh     change       -0.3848286E-04 Eh
 * total energy  :   -27.8355865 Eh     change       -0.4678601E-04 Eh
 * total energy  :   -27.8356306 Eh     change       -0.4409687E-04 Eh
 * total energy  :   -27.8356712 Eh     change       -0.4060600E-04 Eh
 * total energy  :   -27.8357109 Eh     change       -0.3967565E-04 Eh
 * total energy  :   -27.8357460 Eh     change       -0.3513405E-04 Eh
 * total energy  :   -27.8357554 Eh     change       -0.9347873E-05 Eh
 * total energy  :   -27.8357633 Eh     change       -0.7915757E-05 Eh
 * total energy  :   -27.8357656 Eh     change       -0.2292713E-05 Eh
   *** GEOMETRY OPTIMIZATION CONVERGED AFTER 14 ITERATIONS ***

 final structure:
================
22
 xtb: 6.5.1 (fef0646)
N            3.81841486820649       -0.01500601810523       -0.83133151179773
C            2.54843839427495        0.01532982678772       -0.00817612040731
C            2.87854255649967        0.46204281694620        1.38382227232654
C            2.82922333977876        1.81118500944482        1.72393509606484
C            3.16349539674698        2.22476285200883        2.99659963273031
C            3.56440212265561        1.30355052974597        3.96802765739231
C            3.92458394444035        1.69172026102019        5.32492179666932
C            3.68288849333471        2.86859565776517        5.89147742323012
C            3.62210191458531       -0.04733052433600        3.61137674064421
C            3.28258456278340       -0.46430630562760        2.34132286614242
H            3.64193835293849       -0.31470140910048       -1.79821185920684
H            4.48806806768373       -0.66044037921955       -0.39229954367115
H            4.23851124083807        0.92365041425417       -0.83766946031881
H            2.12452969544032       -0.98938589850681       -0.01127066404529
H            1.85248470873773        0.70238231223290       -0.49015685232830
H            2.51128755821363        2.53952523180991        0.99152992880856
H            3.11962511271295        3.27400023879217        3.23810655548797
H            4.41250045622856        0.91704203884964        5.90232252550399
H            3.17331861746194        3.67007796624552        5.38511061066257
H            3.97796946943206        3.06633015804794        6.90687800223633
H            3.92600395728995       -0.77586975258805        4.34736001218824
H            3.31492716971636       -1.51642502646745        2.09592489168770

          :  Hamiltonian                  GFN2-xTB          :
         :: total energy             -27.835765559148 Eh    ::
         :: gradient norm              0.000632745160 Eh/a0 ::
         :: HOMO-LUMO gap              3.302862104261 eV    ::
         :: SCC energy               -28.343620671058 Eh    ::
         :: -> dispersion             -0.016408041201 Eh    ::
         :: repulsion energy           0.507866775967 Eh    ::

    * Orbital Energies and Occupations

         #    Occupation            Energy/Eh            Energy/eV
      -------------------------------------------------------------
         1        2.0000           -0.8863598             -24.1191
       ...           ...                  ...                  ...
        14        2.0000           -0.6520251             -17.7425
        15        2.0000           -0.6267388             -17.0544
        16        2.0000           -0.6160501             -16.7636
        17        2.0000           -0.6111083             -16.6291
        18        2.0000           -0.6087515             -16.5650
        19        2.0000           -0.6030663             -16.4103
        20        2.0000           -0.5811731             -15.8145
        21        2.0000           -0.5613288             -15.2745
        22        2.0000           -0.5553737             -15.1125
        23        2.0000           -0.5445795             -14.8188
        24        2.0000           -0.5348418             -14.5538
        25        2.0000           -0.5294641             -14.4075
        26        2.0000           -0.5001808             -13.6106 (HOMO)
        27                         -0.3788028             -10.3078 (LUMO)
        28                         -0.3509530              -9.5499
        29                         -0.3020327              -8.2187
        30                         -0.2456543              -6.6846
        31                         -0.2025484              -5.5116
        32                         -0.1489627              -4.0535
        33                         -0.0862246              -2.3463
        34                         -0.0856203              -2.3298
        35                         -0.0438572              -1.1934
        36                         -0.0166790              -0.4539
        37                          0.0040714               0.1108
       ...                                ...                  ...
        52                          0.5638853              15.3441
      -------------------------------------------------------------
                  HL-Gap            0.1213779 Eh            3.3029 eV

     #   Z          covCN         q      C6AA      α(0)
     1   7 N        3.482    -0.131    23.836     7.251
     2   6 C        3.735    -0.033    21.255     6.580
     3   6 C        2.971    -0.022    28.548     8.764
     4   6 C        2.919    -0.040    29.000     8.831
     5   6 C        2.922    -0.028    28.696     8.785
     6   6 C        2.971     0.033    27.261     8.564
     7   6 C        2.896    -0.032    28.806     8.800
     8   6 C        2.838    -0.070    29.746     8.938
     9   6 C        2.926    -0.029    28.735     8.791
    10   6 C        2.919    -0.041    29.016     8.833
    11   1 H        0.859     0.266     0.826     1.424
    12   1 H        0.859     0.270     0.810     1.410
    13   1 H        0.859     0.270     0.811     1.411
    14   1 H        0.924     0.103     1.755     2.072
    15   1 H        0.924     0.103     1.757     2.073
    16   1 H        0.926     0.042     2.427     2.436
    17   1 H        0.926     0.063     2.165     2.301
    18   1 H        0.925     0.054     2.268     2.355
    19   1 H        0.926     0.058     2.225     2.333
    20   1 H        0.926     0.066     2.126     2.280
    21   1 H        0.926     0.060     2.200     2.319
    22   1 H        0.926     0.040     2.445     2.445

Wiberg/Mayer (AO) data.
largest (>0.10) Wiberg bond orders for each atom

     #   Z sym  total        # sym  WBO       # sym  WBO       # sym  WBO
 ---------------------------------------------------------------------------
     1   7 N    3.671 --    11 H    0.914    13 H    0.912    12 H    0.912
                             2 C    0.897
     2   6 C    3.881 --     3 C    1.009    15 H    0.967    14 H    0.966
                             1 N    0.897
     3   6 C    3.969 --    10 C    1.391     4 C    1.390     2 C    1.009
     4   6 C    3.991 --     5 C    1.470     3 C    1.390    16 H    0.968
     5   6 C    3.990 --     4 C    1.470     6 C    1.365    17 H    0.963
     6   6 C    3.986 --     9 C    1.366     5 C    1.365     7 C    1.097
     7   6 C    3.989 --     8 C    1.894     6 C    1.097    18 H    0.962
     8   6 C    3.982 --     7 C    1.894    20 H    0.975    19 H    0.971
     9   6 C    3.989 --    10 C    1.469     6 C    1.366    21 H    0.966
    10   6 C    3.991 --     9 C    1.469     3 C    1.391    22 H    0.968
    11   1 H    0.928 --     1 N    0.914
    12   1 H    0.927 --     1 N    0.912
    13   1 H    0.927 --     1 N    0.912
    14   1 H    0.989 --     2 C    0.966
    15   1 H    0.989 --     2 C    0.967
    16   1 H    0.998 --     4 C    0.968
    17   1 H    0.996 --     5 C    0.963
    18   1 H    0.997 --     7 C    0.962
    19   1 H    0.997 --     8 C    0.971
    20   1 H    0.995 --     8 C    0.975
    21   1 H    0.996 --     9 C    0.966
    22   1 H    0.998 --    10 C    0.968
 ---------------------------------------------------------------------------

molecular dipole:
                 x           y           z       tot (Debye)
 q only:        7.044       0.547       0.161
   full:        7.157       0.489      -0.079      18.235

           -------------------------------------------------
          | TOTAL ENERGY              -27.835765559148 Eh   |
          | GRADIENT NORM               0.000632745160 Eh/α |
          | HOMO-LUMO GAP               3.302862104261 eV   |
           -------------------------------------------------

 * finished run on 2023/01/23 at 13:45:10.303
