   * xtb version 6.5.1 (fef0646) compiled by 'conda@b96dff2e9fd6' on 2023-01-04
          program call               : xtb init.xyz --opt -c 0 -u 0 -P 16

   ID    Z sym.   atoms
    1    8 O      1
    2    6 C      2-4
    3    7 N      5
    4   17 Cl     6
    5    1 H      7-16

          :  Hamiltonian                  GFN2-xTB          :
 * total energy  :   -22.9576356 Eh     change       -0.3593925E-10 Eh
 * total energy  :   -22.9658308 Eh     change       -0.8195207E-02 Eh
 * total energy  :   -22.9717051 Eh     change       -0.5874320E-02 Eh
 * total energy  :   -22.9728117 Eh     change       -0.1106522E-02 Eh
 * total energy  :   -22.9740424 Eh     change       -0.1230788E-02 Eh
 * total energy  :   -22.9748287 Eh     change       -0.7862623E-03 Eh
 * total energy  :   -22.9760066 Eh     change       -0.1177854E-02 Eh
 * total energy  :   -22.9771884 Eh     change       -0.1181868E-02 Eh
 * total energy  :   -22.9779704 Eh     change       -0.7819630E-03 Eh
 * total energy  :   -22.9784857 Eh     change       -0.5152846E-03 Eh
 * total energy  :   -23.0471124 Eh     change       -0.2998323E-03 Eh
 * total energy  :   -23.0471462 Eh     change       -0.3383523E-04 Eh
 * total energy  :   -23.0472930 Eh     change       -0.1467939E-03 Eh
 * total energy  :   -23.0473541 Eh     change       -0.6108505E-04 Eh
 * total energy  :   -23.0474163 Eh     change       -0.6225884E-04 Eh
 * total energy  :   -23.0474410 Eh     change       -0.2467255E-04 Eh
 * total energy  :   -23.0474666 Eh     change       -0.2562636E-04 Eh
 * total energy  :   -23.0474720 Eh     change       -0.5411546E-05 Eh
 * total energy  :   -23.0474744 Eh     change       -0.2356590E-05 Eh
   *** GEOMETRY OPTIMIZATION CONVERGED AFTER 80 ITERATIONS ***

 final structure:
================
16
 xtb: 6.5.1 (fef0646)
O            3.18060857136374       -1.71520159709067       -0.30247678491666
C            2.31691443814891       -0.60614415337471       -0.38840323580749
C            2.60585033133327        0.25351537637030       -1.62850820058225
C            3.85672289424901        1.11805651002284       -1.50382497244204
N            5.04238553138678        0.29833670690536       -1.22690904350017
Cl           5.23218677376661       -0.18424925446364        1.59494609947705
H            3.83261701537350       -1.54761527269580        0.39396989093866
H            2.37746547718026        0.01260275921827        0.51074061114366
H            1.29609383667781       -0.99693363552275       -0.47319739144558
H            1.75189430762312        0.90671056519108       -1.80962830347817
H            2.70897847532488       -0.41624656234034       -2.48518594275364
H            3.74125979588408        1.82494014901162       -0.67833068665566
H            3.98084453644399        1.69028359107865       -2.43113789034575
H            4.96354407756053       -0.60924007137304       -1.67697787995878
H            5.14656601557319        0.06808909630444        0.14982429219942
H            5.89948792211293        0.75844579274309       -1.51234056189759

          :  Hamiltonian                  GFN2-xTB          :
         :: total energy             -23.047474392800 Eh    ::
         :: gradient norm              0.000456591401 Eh/a0 ::
         :: HOMO-LUMO gap              9.029034093284 eV    ::
         :: SCC energy               -23.243345290948 Eh    ::
         :: -> dispersion             -0.009701769466 Eh    ::
         :: repulsion energy           0.195841642222 Eh    ::

    * Orbital Energies and Occupations

         #    Occupation            Energy/Eh            Energy/eV
      -------------------------------------------------------------
         1        2.0000           -1.0152172             -27.6255
       ...           ...                  ...                  ...
         8        2.0000           -0.5669685             -15.4280
         9        2.0000           -0.5500620             -14.9679
        10        2.0000           -0.5360789             -14.5874
        11        2.0000           -0.5217966             -14.1988
        12        2.0000           -0.5082044             -13.8289
        13        2.0000           -0.4934510             -13.4275
        14        2.0000           -0.4764173             -12.9640
        15        2.0000           -0.4670194             -12.7082
        16        2.0000           -0.4400530             -11.9745
        17        2.0000           -0.4061345             -11.0515
        18        2.0000           -0.4006700             -10.9028
        19        2.0000           -0.3939595             -10.7202
        20        2.0000           -0.3925495             -10.6818 (HOMO)
        21                         -0.0607386              -1.6528 (LUMO)
        22                          0.0099958               0.2720
        23                          0.0555410               1.5113
        24                          0.0655822               1.7846
        25                          0.0747224               2.0333
        26                          0.0753468               2.0503
        27                          0.0786267               2.1395
        28                          0.0787442               2.1427
        29                          0.0888680               2.4182
        30                          0.0989859               2.6935
        31                          0.1299577               3.5363
       ...                                ...                  ...
        39                          0.3079313               8.3792
      -------------------------------------------------------------
                  HL-Gap            0.3318109 Eh            9.0290 eV

     #   Z          covCN         q      C6AA      α(0)
     1   8 O        1.655    -0.460    22.048     6.339
     2   6 C        3.673     0.074    19.576     6.341
     3   6 C        3.800    -0.080    22.033     6.683
     4   6 C        3.731    -0.000    20.681     6.492
     5   7 N        2.992    -0.266    26.875     7.700
     6  17 Cl       0.810    -0.568   118.124    16.626
     7   1 H        0.805     0.316     0.674     1.290
     8   1 H        0.924     0.036     2.504     2.475
     9   1 H        0.924     0.040     2.443     2.444
    10   1 H        0.924     0.047     2.357     2.401
    11   1 H        0.924     0.056     2.251     2.346
    12   1 H        0.924     0.064     2.149     2.292
    13   1 H        0.924     0.038     2.480     2.463
    14   1 H        0.860     0.202     1.095     1.639
    15   1 H        1.169     0.323     0.641     1.250
    16   1 H        0.860     0.178     1.223     1.733

Wiberg/Mayer (AO) data.
largest (>0.10) Wiberg bond orders for each atom

     #   Z sym  total        # sym  WBO       # sym  WBO       # sym  WBO
 ---------------------------------------------------------------------------
     1   8 O    1.950 --     2 C    1.009     7 H    0.865
     2   6 C    3.964 --     1 O    1.009     3 C    0.993     8 H    0.974
                             9 H    0.971
     3   6 C    3.994 --     4 C    1.010     2 C    0.993    10 H    0.974
                            11 H    0.973
     4   6 C    3.968 --     3 C    1.010     5 N    0.995    13 H    0.974
                            12 H    0.972
     5   7 N    3.381 --     4 C    0.995    16 H    0.955    14 H    0.941
                            15 H    0.349     6 Cl   0.111
     6  17 Cl   0.695 --    15 H    0.539     5 N    0.111
     7   1 H    0.900 --     1 O    0.865
     8   1 H    0.999 --     2 C    0.974
     9   1 H    0.998 --     2 C    0.971
    10   1 H    0.998 --     3 C    0.974
    11   1 H    0.997 --     3 C    0.973
    12   1 H    0.996 --     4 C    0.972
    13   1 H    0.999 --     4 C    0.974
    14   1 H    0.959 --     5 N    0.941
    15   1 H    0.896 --     6 Cl   0.539     5 N    0.349
    16   1 H    0.968 --     5 N    0.955
 ---------------------------------------------------------------------------

molecular dipole:
                 x           y           z       tot (Debye)
 q only:       -0.233       0.858      -2.140
   full:        0.065       1.024      -1.718       5.085

           -------------------------------------------------
          | TOTAL ENERGY              -23.047474392800 Eh   |
          | GRADIENT NORM               0.000456591401 Eh/α |
          | HOMO-LUMO GAP               9.029034093284 eV   |
           -------------------------------------------------

 * finished run on 2023/01/23 at 13:40:05.213
