   * xtb version 6.5.1 (fef0646) compiled by 'conda@b96dff2e9fd6' on 2023-01-04
          program call               : xtb init.xyz --opt -c 1 -u 0 -P 16 --alpb water

   ID    Z sym.   atoms
    1    7 N      1
    2    6 C      2-12, 14-18
    3    9 F      13
    4    1 H      19-35

      * Solvation model:               ALPB
        Solvent                        water
        Solvent mass                       1.8000E+01 g/mol
          :  Hamiltonian                  GFN2-xTB          :
 * total energy  :   -50.2285467 Eh     change       -0.1770672E-09 Eh
 * total energy  :   -50.2320910 Eh     change       -0.3544333E-02 Eh
 * total energy  :   -50.2328398 Eh     change       -0.7487649E-03 Eh
 * total energy  :   -50.2330557 Eh     change       -0.2159321E-03 Eh
 * total energy  :   -50.2332310 Eh     change       -0.1752922E-03 Eh
 * total energy  :   -50.2333476 Eh     change       -0.1165887E-03 Eh
 * total energy  :   -50.2334936 Eh     change       -0.1459613E-03 Eh
 * total energy  :   -50.2336862 Eh     change       -0.1926342E-03 Eh
 * total energy  :   -50.2338851 Eh     change       -0.1989006E-03 Eh
 * total energy  :   -50.2340838 Eh     change       -0.1987435E-03 Eh
 * total energy  :   -50.2345333 Eh     change       -0.4150803E-04 Eh
 * total energy  :   -50.2345780 Eh     change       -0.4474430E-04 Eh
 * total energy  :   -50.2346042 Eh     change       -0.2619205E-04 Eh
 * total energy  :   -50.2346014 Eh     change        0.2795468E-05 Eh
 * total energy  :   -50.2346277 Eh     change       -0.2625124E-04 Eh
 * total energy  :   -50.2346419 Eh     change       -0.1422346E-04 Eh
 * total energy  :   -50.2346554 Eh     change       -0.1353365E-04 Eh
 * total energy  :   -50.2346639 Eh     change       -0.8528572E-05 Eh
 * total energy  :   -50.2346681 Eh     change       -0.4206435E-05 Eh
   *** GEOMETRY OPTIMIZATION CONVERGED AFTER 23 ITERATIONS ***

 final structure:
================
35
 xtb: 6.5.1 (fef0646)
N            2.76104000411238        2.83128638963148       -0.26074562157455
C            2.34180965971902        1.41279676714671       -0.15424336953210
C            2.91699045820826        0.61150530491032       -1.32224056221099
C            4.42064304514277        0.56380665376280       -1.26208669638271
C            5.06295702458263       -0.31397060594742       -0.39389786018465
C            6.43967347775640       -0.35822415749253       -0.31895838748802
C            7.22748022591950        0.48201873996636       -1.11158826867724
C            8.67827347378319        0.46224538458686       -1.09489663011277
C            9.44737930488067       -0.49400490416005       -0.55566632470854
C           10.89817998242535       -0.52729359786314       -0.57581428170185
C           11.67567374026688        0.58628062491873       -0.90508728485474
C           13.04705976743343        0.46618980735501       -0.91409096193276
F           13.79178941808111        1.56944268969418       -1.23597123617013
C           13.70430804093121       -0.71097850270573       -0.61217576822986
C           12.93236039809618       -1.81245963029764       -0.27808201890537
C           11.55448365655582       -1.72027856242606       -0.25497305358086
C            6.57652020199799        1.37551458546303       -1.96649332498940
C            5.19782945392261        1.41391650146266       -2.04193536455664
H            2.46468290566769        3.36793372454100        0.56182945699244
H            2.35555020552318        3.26082645378347       -1.10039928124194
H            3.78515145017912        2.87633552905824       -0.34047457859010
H            1.25412632105832        1.35684832752670       -0.16373799319834
H            2.70962643690379        1.00237259151767        0.78581712310485
H            2.59797037002195        1.04663279175035       -2.26936964190204
H            2.52339472400930       -0.40313139842256       -1.27253749943130
H            4.47826139359079       -0.98113189803146        0.22213229116848
H            6.91076289053807       -1.04625611054941        0.36486114814360
H            9.14705024736810        1.28969860846868       -1.61087230118915
H            8.98874373680546       -1.35524196440783       -0.09018653368481
H           11.23370436167300        1.54061398486946       -1.13941033647318
H           14.78064871805446       -0.75232372079848       -0.63656932644088
H           13.41669426317346       -2.74477611435714       -0.03414200732833
H           10.96975668947834       -2.58919758956526        0.00642715193018
H            7.16656116453613        2.03434080004023       -2.58783531844906
H            4.73030278760085        2.09375249657190       -2.73895533761972

          :  Hamiltonian                  GFN2-xTB          :
         :: total energy             -50.234668148752 Eh    ::
         :: gradient norm              0.000595710713 Eh/a0 ::
         :: HOMO-LUMO gap              2.778183810131 eV    ::
         :: SCC energy               -51.079114059444 Eh    ::
         :: -> dispersion             -0.031503964373 Eh    ::
         :: -> Gsolv                  -0.124990517850 Eh    ::
         :: repulsion energy           0.844730516985 Eh    ::

    * Orbital Energies and Occupations

         #    Occupation            Energy/Eh            Energy/eV
      -------------------------------------------------------------
         1        2.0000           -0.8223576             -22.3775
       ...           ...                  ...                  ...
        34        2.0000           -0.4743671             -12.9082
        35        2.0000           -0.4676186             -12.7245
        36        2.0000           -0.4562209             -12.4144
        37        2.0000           -0.4512377             -12.2788
        38        2.0000           -0.4448248             -12.1043
        39        2.0000           -0.4398825             -11.9698
        40        2.0000           -0.4353243             -11.8458
        41        2.0000           -0.4255707             -11.5804
        42        2.0000           -0.4188071             -11.3963
        43        2.0000           -0.4167630             -11.3407
        44        2.0000           -0.4130619             -11.2400
        45        2.0000           -0.4079561             -11.1011
        46        2.0000           -0.3768460             -10.2545 (HOMO)
        47                         -0.2747496              -7.4763 (LUMO)
        48                         -0.2335802              -6.3560
        49                         -0.2256065              -6.1391
        50                         -0.2195347              -5.9738
        51                         -0.1699077              -4.6234
        52                         -0.0966299              -2.6294
        53                         -0.0781801              -2.1274
        54                         -0.0460757              -1.2538
        55                          0.0278682               0.7583
        56                          0.0586801               1.5968
        57                          0.0816650               2.2222
       ...                                ...                  ...
        89                          0.6935646              18.8729
      -------------------------------------------------------------
                  HL-Gap            0.1020964 Eh            2.7782 eV

     #   Z          covCN         q      C6AA      α(0)
     1   7 N        3.485    -0.155    24.332     7.326
     2   6 C        3.733    -0.037    21.319     6.590
     3   6 C        3.808    -0.095    22.303     6.723
     4   6 C        2.970     0.010    27.795     8.648
     5   6 C        2.921    -0.045    29.108     8.848
     6   6 C        2.922    -0.037    28.917     8.818
     7   6 C        2.971     0.010    27.784     8.646
     8   6 C        2.902    -0.039    28.964     8.824
     9   6 C        2.901    -0.044    29.093     8.844
    10   6 C        2.975     0.019    27.577     8.614
    11   6 C        2.920    -0.058    29.440     8.898
    12   6 C        2.787     0.166    24.404     8.092
    13   9 F        0.786    -0.286    12.160     4.119
    14   6 C        2.916    -0.056    29.380     8.888
    15   6 C        2.923    -0.033    28.833     8.806
    16   6 C        2.927    -0.045    29.113     8.849
    17   6 C        2.927    -0.040    28.987     8.829
    18   6 C        2.920    -0.054    29.336     8.882
    19   1 H        0.859     0.317     0.666     1.278
    20   1 H        0.859     0.309     0.686     1.298
    21   1 H        0.859     0.293     0.733     1.341
    22   1 H        0.925     0.117     1.639     2.002
    23   1 H        0.925     0.110     1.699     2.038
    24   1 H        0.925     0.081     1.966     2.193
    25   1 H        0.925     0.082     1.961     2.190
    26   1 H        0.926     0.049     2.331     2.387
    27   1 H        0.926     0.033     2.544     2.494
    28   1 H        0.925     0.041     2.439     2.442
    29   1 H        0.926     0.051     2.308     2.376
    30   1 H        0.926     0.066     2.130     2.282
    31   1 H        0.926     0.058     2.223     2.331
    32   1 H        0.926     0.057     2.231     2.336
    33   1 H        0.926     0.060     2.204     2.321
    34   1 H        0.926     0.033     2.539     2.492
    35   1 H        0.926     0.059     2.211     2.325

Wiberg/Mayer (AO) data.
largest (>0.10) Wiberg bond orders for each atom

     #   Z sym  total        # sym  WBO       # sym  WBO       # sym  WBO
 ---------------------------------------------------------------------------
     1   7 N    3.657 --     2 C    0.966    21 H    0.892    20 H    0.890
                            19 H    0.886
     2   6 C    3.924 --     3 C    0.997    23 H    0.966     1 N    0.966
                            22 H    0.964
     3   6 C    3.988 --     4 C    1.011     2 C    0.997    24 H    0.967
                            25 H    0.960
     4   6 C    3.977 --    18 C    1.403     5 C    1.393     3 C    1.011
     5   6 C    3.990 --     6 C    1.473     4 C    1.393    26 H    0.967
                            17 C    0.102
     6   6 C    3.978 --     5 C    1.473     7 C    1.359    27 H    0.966
                            18 C    0.101
     7   6 C    3.989 --    17 C    1.368     6 C    1.359     8 C    1.112
     8   6 C    3.989 --     9 C    1.761     7 C    1.112    28 H    0.959
     9   6 C    3.986 --     8 C    1.761    10 C    1.111    29 H    0.958
    10   6 C    3.987 --    16 C    1.364    11 C    1.361     9 C    1.111
    11   6 C    3.978 --    12 C    1.427    10 C    1.361    30 H    0.961
                            15 C    0.104
    12   6 C    3.860 --    11 C    1.427    14 C    1.395    13 F    0.909
    13   9 F    1.025 --    12 C    0.909
    14   6 C    3.977 --    15 C    1.425    12 C    1.395    31 H    0.967
    15   6 C    3.989 --    16 C    1.462    14 C    1.425    32 H    0.969
                            11 C    0.104
    16   6 C    3.975 --    15 C    1.462    10 C    1.364    33 H    0.967
    17   6 C    3.981 --    18 C    1.457     7 C    1.368    34 H    0.969
                             5 C    0.102
    18   6 C    3.988 --    17 C    1.457     4 C    1.403    35 H    0.965
                             6 C    0.101
    19   1 H    0.900 --     1 N    0.886
    20   1 H    0.904 --     1 N    0.890
    21   1 H    0.914 --     1 N    0.892
    22   1 H    0.986 --     2 C    0.964
    23   1 H    0.988 --     2 C    0.966
    24   1 H    0.993 --     3 C    0.967
    25   1 H    0.992 --     3 C    0.960
    26   1 H    0.997 --     5 C    0.967
    27   1 H    0.999 --     6 C    0.966
    28   1 H    0.998 --     8 C    0.959
    29   1 H    0.997 --     9 C    0.958
    30   1 H    0.996 --    11 C    0.961
    31   1 H    0.996 --    14 C    0.967
    32   1 H    0.996 --    15 C    0.969
    33   1 H    0.996 --    16 C    0.967
    34   1 H    0.999 --    17 C    0.969
    35   1 H    0.996 --    18 C    0.965
 ---------------------------------------------------------------------------

molecular dipole:
                 x           y           z       tot (Debye)
 q only:        3.624       4.165      -0.308
   full:        4.092       4.204      -0.357      14.939

           -------------------------------------------------
          | TOTAL ENERGY              -50.234668148752 Eh   |
          | GRADIENT NORM               0.000595710713 Eh/α |
          | HOMO-LUMO GAP               2.778183810131 eV   |
           -------------------------------------------------

 * finished run on 2023/01/24 at 14:56:12.325
