   * xtb version 6.5.1 (fef0646) compiled by 'conda@b96dff2e9fd6' on 2023-01-04
          program call               : xtb init.xyz --opt -c 0 -u 0 -P 16 --alpb water

   ID    Z sym.   atoms
    1    7 N      1
    2    6 C      2-6
    3   17 Cl     7
    4    1 H      8-21

      * Solvation model:               ALPB
        Solvent                        water
        Solvent mass                       1.8000E+01 g/mol
          :  Hamiltonian                  GFN2-xTB          :
 * total energy  :   -25.3499189 Eh     change       -0.1465757E-08 Eh
 * total energy  :   -25.3538919 Eh     change       -0.3972975E-02 Eh
 * total energy  :   -25.3550229 Eh     change       -0.1131057E-02 Eh
 * total energy  :   -25.3556635 Eh     change       -0.6405425E-03 Eh
 * total energy  :   -25.3560762 Eh     change       -0.4127344E-03 Eh
 * total energy  :   -25.3566399 Eh     change       -0.5637053E-03 Eh
 * total energy  :   -25.3573645 Eh     change       -0.7245576E-03 Eh
 * total energy  :   -25.3578856 Eh     change       -0.5210881E-03 Eh
 * total energy  :   -25.3580904 Eh     change       -0.2048310E-03 Eh
 * total energy  :   -25.3582056 Eh     change       -0.1152435E-03 Eh
 * total energy  :   -25.3584169 Eh     change       -0.8838513E-04 Eh
 * total energy  :   -25.3585016 Eh     change       -0.8466047E-04 Eh
 * total energy  :   -25.3585490 Eh     change       -0.4738534E-04 Eh
 * total energy  :   -25.3585917 Eh     change       -0.4274842E-04 Eh
 * total energy  :   -25.3586167 Eh     change       -0.2493959E-04 Eh
 * total energy  :   -25.3586429 Eh     change       -0.2626270E-04 Eh
 * total energy  :   -25.3586565 Eh     change       -0.1352515E-04 Eh
 * total energy  :   -25.3586704 Eh     change       -0.1390510E-04 Eh
 * total energy  :   -25.3586747 Eh     change       -0.4282210E-05 Eh
   *** GEOMETRY OPTIMIZATION CONVERGED AFTER 21 ITERATIONS ***

 final structure:
================
21
 xtb: 6.5.1 (fef0646)
N            1.29302556669350        0.04697676637339       -0.43764216525841
C            2.76448530819390        0.06984585944740       -0.30482281780758
C            3.18331754219238        1.11996695692421        0.71581341517884
C            4.69126263039941        1.09575082467125        0.95481631923270
C            5.12428956436347        2.14742014603230        1.97361357614499
C            6.63304375694011        2.13585948761920        2.19086029407571
Cl           0.00107645238714       -0.51676779568745        2.27677325464580
H            0.98647442882523       -0.67207587870295       -1.09572457957751
H            0.93916274517090        0.96013589681918       -0.73387228724350
H            0.85565419829080       -0.16200910875098        0.49533205222090
H            3.21442718806813        0.28520990430228       -1.27490291779208
H            3.09559140952906       -0.91175221288176        0.03321979312832
H            2.65889265561721        0.92476738482824        1.65324088817972
H            2.89477340956854        2.11391563811612        0.37109287391721
H            5.21348444329755        1.27666537959349        0.01317675736261
H            4.98644285096564        0.10903675799651        1.31668058554390
H            4.61798355485721        1.95887177388488        2.92334713994055
H            4.81734620135534        3.13718154285800        1.62858705461723
H            6.95938565725272        1.16234716518470        2.55044120487001
H            6.92047682454644        2.88508250830292        2.92464688769713
H            7.15357361148789        2.34937100306760        1.25994267092351

          :  Hamiltonian                  GFN2-xTB          :
         :: total energy             -25.358674654552 Eh    ::
         :: gradient norm              0.000881590358 Eh/a0 ::
         :: HOMO-LUMO gap             10.126469938937 eV    ::
         :: SCC energy               -25.655963295420 Eh    ::
         :: -> dispersion             -0.011366820909 Eh    ::
         :: -> Gsolv                  -0.072470405061 Eh    ::
         :: repulsion energy           0.297286524720 Eh    ::

    * Orbital Energies and Occupations

         #    Occupation            Energy/Eh            Energy/eV
      -------------------------------------------------------------
         1        2.0000           -1.0061167             -27.3778
       ...           ...                  ...                  ...
        11        2.0000           -0.5137163             -13.9789
        12        2.0000           -0.4882278             -13.2854
        13        2.0000           -0.4846109             -13.1869
        14        2.0000           -0.4803608             -13.0713
        15        2.0000           -0.4561203             -12.4117
        16        2.0000           -0.4511926             -12.2776
        17        2.0000           -0.4342027             -11.8153
        18        2.0000           -0.4291694             -11.6783
        19        2.0000           -0.4268348             -11.6148
        20        2.0000           -0.4158825             -11.3167
        21        2.0000           -0.4027104             -10.9583
        22        2.0000           -0.4003438             -10.8939
        23        2.0000           -0.3999889             -10.8843 (HOMO)
        24                         -0.0278480              -0.7578 (LUMO)
        25                          0.0655282               1.7831
        26                          0.0919106               2.5010
        27                          0.0991442               2.6979
        28                          0.1157637               3.1501
        29                          0.1174447               3.1958
        30                          0.1181644               3.2154
        31                          0.1194018               3.2491
        32                          0.1198110               3.2602
        33                          0.1226300               3.3369
        34                          0.1445935               3.9346
       ...                                ...                  ...
        47                          0.3218469               8.7579
      -------------------------------------------------------------
                  HL-Gap            0.3721409 Eh           10.1265 eV

     #   Z          covCN         q      C6AA      α(0)
     1   7 N        3.484    -0.170    24.662     7.376
     2   6 C        3.733    -0.026    21.131     6.561
     3   6 C        3.804    -0.078    21.979     6.674
     4   6 C        3.804    -0.068    21.804     6.648
     5   6 C        3.801    -0.058    21.624     6.621
     6   6 C        3.752    -0.112    22.707     6.795
     7  17 Cl       0.048    -0.948   124.912    17.010
     8   1 H        0.860     0.304     0.702     1.312
     9   1 H        0.859     0.297     0.723     1.332
    10   1 H        0.905     0.293     0.732     1.338
    11   1 H        0.924     0.104     1.747     2.067
    12   1 H        0.925     0.095     1.829     2.115
    13   1 H        0.924     0.053     2.283     2.363
    14   1 H        0.924     0.058     2.219     2.330
    15   1 H        0.924     0.048     2.347     2.396
    16   1 H        0.924     0.038     2.471     2.458
    17   1 H        0.924     0.026     2.647     2.544
    18   1 H        0.924     0.035     2.517     2.481
    19   1 H        0.925     0.035     2.516     2.480
    20   1 H        0.925     0.033     2.539     2.492
    21   1 H        0.925     0.041     2.436     2.441

Wiberg/Mayer (AO) data.
largest (>0.10) Wiberg bond orders for each atom

     #   Z sym  total        # sym  WBO       # sym  WBO       # sym  WBO
 ---------------------------------------------------------------------------
     1   7 N    3.645 --     2 C    0.968     9 H    0.897     8 H    0.894
                            10 H    0.834
     2   6 C    3.930 --     3 C    1.009    12 H    0.969     1 N    0.968
                            11 H    0.967
     3   6 C    3.992 --     2 C    1.009     4 C    1.005    14 H    0.974
                            13 H    0.973
     4   6 C    3.996 --     5 C    1.008     3 C    1.005    16 H    0.977
                            15 H    0.976
     5   6 C    3.997 --     6 C    1.019     4 C    1.008    17 H    0.979
                            18 H    0.978
     6   6 C    3.996 --     5 C    1.019    19 H    0.988    20 H    0.987
                            21 H    0.987
     7  17 Cl   0.101
     8   1 H    0.907 --     1 N    0.894
     9   1 H    0.912 --     1 N    0.897
    10   1 H    0.914 --     1 N    0.834
    11   1 H    0.989 --     2 C    0.967
    12   1 H    0.991 --     2 C    0.969
    13   1 H    0.997 --     3 C    0.973
    14   1 H    0.997 --     3 C    0.974
    15   1 H    0.998 --     4 C    0.976
    16   1 H    0.999 --     4 C    0.977
    17   1 H    0.999 --     5 C    0.979
    18   1 H    0.999 --     5 C    0.978
    19   1 H    0.999 --     6 C    0.988
    20   1 H    0.999 --     6 C    0.987
    21   1 H    0.998 --     6 C    0.987
 ---------------------------------------------------------------------------

molecular dipole:
                 x           y           z       tot (Debye)
 q only:        2.573       1.059      -4.841
   full:        2.110       0.916      -4.212      12.200

           -------------------------------------------------
          | TOTAL ENERGY              -25.358674654552 Eh   |
          | GRADIENT NORM               0.000881590358 Eh/α |
          | HOMO-LUMO GAP              10.126469938937 eV   |
           -------------------------------------------------

 * finished run on 2023/01/24 at 14:57:50.465
