   * xtb version 6.5.1 (fef0646) compiled by 'conda@b96dff2e9fd6' on 2023-01-04
          program call               : xtb init.xyz --opt -c 0 -u 0 -P 16 --alpb water

   ID    Z sym.   atoms
    1    7 N      1
    2    6 C      2-7, 9-11
    3    8 O      8
    4   17 Cl     12
    5    1 H      13-26

      * Solvation model:               ALPB
        Solvent                        water
        Solvent mass                       1.8000E+01 g/mol
          :  Hamiltonian                  GFN2-xTB          :
 * total energy  :   -37.9728484 Eh     change       -0.1442736E-08 Eh
 * total energy  :   -37.9771097 Eh     change       -0.4261342E-02 Eh
 * total energy  :   -37.9782556 Eh     change       -0.1145918E-02 Eh
 * total energy  :   -37.9787438 Eh     change       -0.4881780E-03 Eh
 * total energy  :   -37.9791198 Eh     change       -0.3759665E-03 Eh
 * total energy  :   -37.9794449 Eh     change       -0.3250907E-03 Eh
 * total energy  :   -37.9796667 Eh     change       -0.2218705E-03 Eh
 * total energy  :   -37.9797826 Eh     change       -0.1158719E-03 Eh
 * total energy  :   -37.9798937 Eh     change       -0.1110598E-03 Eh
 * total energy  :   -37.9800105 Eh     change       -0.1168608E-03 Eh
 * total energy  :   -37.9815619 Eh     change       -0.1881986E-03 Eh
 * total energy  :   -37.9816509 Eh     change       -0.8905635E-04 Eh
 * total energy  :   -37.9817000 Eh     change       -0.4903865E-04 Eh
 * total energy  :   -37.9817284 Eh     change       -0.2845858E-04 Eh
 * total energy  :   -37.9817419 Eh     change       -0.1345435E-04 Eh
 * total energy  :   -37.9817522 Eh     change       -0.1029680E-04 Eh
 * total energy  :   -37.9817602 Eh     change       -0.8002740E-05 Eh
 * total energy  :   -37.9817675 Eh     change       -0.7330934E-05 Eh
 * total energy  :   -37.9817721 Eh     change       -0.4640296E-05 Eh
   *** GEOMETRY OPTIMIZATION CONVERGED AFTER 25 ITERATIONS ***

 final structure:
================
26
 xtb: 6.5.1 (fef0646)
N            2.64596703570621       -0.61084439772624        2.64551951051531
C            2.29381511996810       -1.78404878221003        1.82194232909319
C            2.84191781467594       -1.59516967760693        0.40811263243960
C            4.34552224588688       -1.56040336316130        0.40608242978291
C            5.08700986734200       -2.72932894730441        0.32505513112563
C            6.47158485966011       -2.70945156900813        0.35379601568027
C            7.14203574350670       -1.49716113218312        0.46651084399641
O            8.50182527368276       -1.35346174578107        0.50601123017543
C            9.30484013527121       -2.51501281676285        0.43804912722653
C            6.40411622014900       -0.31560436891039        0.54750627436639
C            5.02541349107364       -0.35040603690211        0.52004136177727
Cl           1.75307944545932        2.00186778670338        1.32314988978040
H            2.26195760009759       -0.67508745987157        3.59007800509394
H            2.27899131680289        0.26866690270250        2.19904487204562
H            3.66386225480213       -0.50494171096124        2.68513389410698
H            1.20921623593498       -1.87064069100135        1.78064288065163
H            2.71796943176165       -2.68249938131319        2.27207602556151
H            2.45207570729232       -0.65667450318218        0.01229955789764
H            2.48969695850668       -2.41120925809330       -0.22104209609405
H            4.58082202865594       -3.67820478557644        0.23006499448316
H            7.01384972488518       -3.63821857059541        0.28093406219664
H           10.33119957784290       -2.15932729687699        0.49630408394417
H            9.15481018490048       -3.04555744757989       -0.50621060365912
H            9.10122176392480       -3.18519864890661        1.27754297719254
H            6.93858150221669        0.61835288286604        0.62688069952659
H            4.46729845999367        0.57423501924446        0.56901387109270

          :  Hamiltonian                  GFN2-xTB          :
         :: total energy             -37.981772135269 Eh    ::
         :: gradient norm              0.000262986582 Eh/a0 ::
         :: HOMO-LUMO gap              4.179832340712 eV    ::
         :: SCC energy               -38.479993475397 Eh    ::
         :: -> dispersion             -0.021392338430 Eh    ::
         :: -> Gsolv                  -0.072518538143 Eh    ::
         :: repulsion energy           0.498157377292 Eh    ::

    * Orbital Energies and Occupations

         #    Occupation            Energy/Eh            Energy/eV
      -------------------------------------------------------------
         1        2.0000           -1.0056480             -27.3651
       ...           ...                  ...                  ...
        22        2.0000           -0.4757226             -12.9451
        23        2.0000           -0.4729102             -12.8685
        24        2.0000           -0.4666915             -12.6993
        25        2.0000           -0.4545775             -12.3697
        26        2.0000           -0.4437709             -12.0756
        27        2.0000           -0.4379122             -11.9162
        28        2.0000           -0.4267208             -11.6117
        29        2.0000           -0.4140554             -11.2670
        30        2.0000           -0.4026641             -10.9570
        31        2.0000           -0.4013806             -10.9221
        32        2.0000           -0.3996745             -10.8757
        33        2.0000           -0.3991381             -10.8611
        34        2.0000           -0.3740277             -10.1778 (HOMO)
        35                         -0.2204217              -5.9980 (LUMO)
        36                         -0.2113397              -5.7508
        37                         -0.0885457              -2.4095
        38                         -0.0207644              -0.5650
        39                          0.0289693               0.7883
        40                          0.0837447               2.2788
        41                          0.0938508               2.5538
        42                          0.1088774               2.9627
        43                          0.1159549               3.1553
        44                          0.1174057               3.1948
        45                          0.1182408               3.2175
       ...                                ...                  ...
        67                          0.6673361              18.1591
      -------------------------------------------------------------
                  HL-Gap            0.1536060 Eh            4.1798 eV

     #   Z          covCN         q      C6AA      α(0)
     1   7 N        3.484    -0.165    24.559     7.360
     2   6 C        3.733    -0.025    21.118     6.559
     3   6 C        3.809    -0.088    22.164     6.701
     4   6 C        2.969     0.002    27.972     8.675
     5   6 C        2.925    -0.047    29.155     8.855
     6   6 C        2.916    -0.072    29.790     8.950
     7   6 C        2.864     0.137    25.014     8.198
     8   8 O        1.704    -0.313    19.230     5.921
     9   6 C        3.641     0.025    20.501     6.510
    10   6 C        2.919    -0.061    29.518     8.909
    11   6 C        2.924    -0.046    29.141     8.853
    12  17 Cl       0.045    -0.948   124.895    17.008
    13   1 H        0.860     0.305     0.699     1.310
    14   1 H        0.902     0.296     0.721     1.329
    15   1 H        0.859     0.282     0.769     1.374
    16   1 H        0.925     0.105     1.736     2.060
    17   1 H        0.924     0.106     1.727     2.055
    18   1 H        0.924     0.069     2.095     2.264
    19   1 H        0.925     0.076     2.023     2.224
    20   1 H        0.926     0.054     2.271     2.357
    21   1 H        0.926     0.044     2.399     2.422
    22   1 H        0.925     0.073     2.052     2.240
    23   1 H        0.924     0.050     2.315     2.379
    24   1 H        0.924     0.054     2.266     2.354
    25   1 H        0.926     0.036     2.500     2.473
    26   1 H        0.926     0.049     2.335     2.390

Wiberg/Mayer (AO) data.
largest (>0.10) Wiberg bond orders for each atom

     #   Z sym  total        # sym  WBO       # sym  WBO       # sym  WBO
 ---------------------------------------------------------------------------
     1   7 N    3.647 --     2 C    0.968    15 H    0.898    13 H    0.893
                            14 H    0.831
     2   6 C    3.929 --     3 C    0.995     1 N    0.968    16 H    0.967
                            17 H    0.967
     3   6 C    3.990 --     4 C    1.011     2 C    0.995    18 H    0.968
                            19 H    0.965
     4   6 C    3.989 --     5 C    1.420    11 C    1.390     3 C    1.011
     5   6 C    3.990 --     6 C    1.439     4 C    1.420    20 H    0.967
                            10 C    0.109
     6   6 C    3.987 --     5 C    1.439     7 C    1.378    21 H    0.965
                            11 C    0.103
     7   6 C    3.928 --     6 C    1.378    10 C    1.352     8 O    1.046
     8   8 O    2.196 --     7 C    1.046     9 C    0.974
     9   6 C    3.935 --    22 H    0.979    23 H    0.977    24 H    0.976
                             8 O    0.974
    10   6 C    3.988 --    11 C    1.469     7 C    1.352    25 H    0.969
                             5 C    0.109
    11   6 C    3.989 --    10 C    1.469     4 C    1.390    26 H    0.966
                             6 C    0.103
    12  17 Cl   0.102
    13   1 H    0.907 --     1 N    0.893
    14   1 H    0.912 --     1 N    0.831
    15   1 H    0.920 --     1 N    0.898
    16   1 H    0.988 --     2 C    0.967
    17   1 H    0.989 --     2 C    0.967
    18   1 H    0.995 --     3 C    0.968
    19   1 H    0.994 --     3 C    0.965
    20   1 H    0.997 --     5 C    0.967
    21   1 H    0.998 --     6 C    0.965
    22   1 H    0.994 --     9 C    0.979
    23   1 H    0.997 --     9 C    0.977
    24   1 H    0.997 --     9 C    0.976
    25   1 H    0.998 --    10 C    0.969
    26   1 H    0.997 --    11 C    0.966
 ---------------------------------------------------------------------------

molecular dipole:
                 x           y           z       tot (Debye)
 q only:        1.387      -5.430       2.115
   full:        1.358      -4.741       1.886      13.419

           -------------------------------------------------
          | TOTAL ENERGY              -37.981772135269 Eh   |
          | GRADIENT NORM               0.000262986582 Eh/α |
          | HOMO-LUMO GAP               4.179832340712 eV   |
           -------------------------------------------------

 * finished run on 2023/01/24 at 15:47:59.989
