   * xtb version 6.5.1 (fef0646) compiled by 'conda@b96dff2e9fd6' on 2023-01-04
          program call               : xtb init.xyz --opt -c 0 -u 0 -P 16 --alpb water

   ID    Z sym.   atoms
    1    7 N      1
    2    6 C      2-7, 9, 10
    3   35 Br     8
    4   17 Cl     11
    5    1 H      12-22

      * Solvation model:               ALPB
        Solvent                        water
        Solvent mass                       1.8000E+01 g/mol
          :  Hamiltonian                  GFN2-xTB          :
 * total energy  :   -34.3217512 Eh     change       -0.7135696E-09 Eh
 * total energy  :   -34.3266755 Eh     change       -0.4924255E-02 Eh
 * total energy  :   -34.3276684 Eh     change       -0.9929707E-03 Eh
 * total energy  :   -34.3279468 Eh     change       -0.2783446E-03 Eh
 * total energy  :   -34.3280655 Eh     change       -0.1187721E-03 Eh
 * total energy  :   -34.3281602 Eh     change       -0.9470499E-04 Eh
 * total energy  :   -34.3282401 Eh     change       -0.7981127E-04 Eh
 * total energy  :   -34.3283278 Eh     change       -0.8773181E-04 Eh
 * total energy  :   -34.3284045 Eh     change       -0.7672475E-04 Eh
 * total energy  :   -34.3284696 Eh     change       -0.6509658E-04 Eh
 * total energy  :   -34.3293217 Eh     change       -0.9237236E-05 Eh
 * total energy  :   -34.3293289 Eh     change       -0.7183156E-05 Eh
 * total energy  :   -34.3293348 Eh     change       -0.5845341E-05 Eh
 * total energy  :   -34.3293399 Eh     change       -0.5146914E-05 Eh
 * total energy  :   -34.3293460 Eh     change       -0.6132767E-05 Eh
 * total energy  :   -34.3293545 Eh     change       -0.8458389E-05 Eh
 * total energy  :   -34.3293650 Eh     change       -0.1046944E-04 Eh
 * total energy  :   -34.3293729 Eh     change       -0.7930616E-05 Eh
 * total energy  :   -34.3293756 Eh     change       -0.2728937E-05 Eh
   *** GEOMETRY OPTIMIZATION CONVERGED AFTER 34 ITERATIONS ***

 final structure:
================
22
 xtb: 6.5.1 (fef0646)
N            0.97313866274761        0.01671412762521       -0.16927369918232
C            2.44529477949638        0.05913731309628       -0.26063040909296
C            2.95529195218932        1.37668125897987        0.32532747885963
C            4.45004558067982        1.35433021335893        0.46351300004648
C            5.26841250112190        1.90131933095431       -0.51692584249620
C            6.64667269320682        1.86606217887642       -0.39479489576146
C            7.20201903274750        1.27038669766295        0.72224657779467
Br           9.12184417345615        1.22173390971588        0.90860845242752
C            6.41329098807421        0.71203011055946        1.71206719048104
C            5.03796890934271        0.75724082133210        1.57293606469308
Cl           0.28580261314685        0.33863265872246        2.79227310368723
H            0.59819864995641       -0.86701583940186       -0.52186246092787
H            0.55172409016782        0.79975962890189       -0.67539720319454
H            0.68977913879452        0.11008923578019        0.84093179663863
H            2.75760758691795       -0.04077940524958       -1.30040910929070
H            2.85361447740130       -0.76898744377047        0.31761802733861
H            2.49937169042751        1.50384315860146        1.30879605383087
H            2.65976646706464        2.21033231585648       -0.31037296447275
H            4.83264498636456        2.37053912586816       -1.38500807156217
H            7.28118114361105        2.29610495005997       -1.15357945157434
H            6.86630878671667        0.25409736134562        2.57757927917620
H            4.41311109639092        0.33259829113174        2.34426708258162

          :  Hamiltonian                  GFN2-xTB          :
         :: total energy             -34.329375635967 Eh    ::
         :: gradient norm              0.000479259160 Eh/a0 ::
         :: HOMO-LUMO gap              4.228147973457 eV    ::
         :: SCC energy               -34.769306951704 Eh    ::
         :: -> dispersion             -0.018865746117 Eh    ::
         :: -> Gsolv                  -0.078924306005 Eh    ::
         :: repulsion energy           0.439953913034 Eh    ::

    * Orbital Energies and Occupations

         #    Occupation            Energy/Eh            Energy/eV
      -------------------------------------------------------------
         1        2.0000           -1.0073899             -27.4125
       ...           ...                  ...                  ...
        19        2.0000           -0.4856824             -13.2161
        20        2.0000           -0.4807456             -13.0818
        21        2.0000           -0.4721266             -12.8472
        22        2.0000           -0.4460715             -12.1382
        23        2.0000           -0.4403303             -11.9820
        24        2.0000           -0.4332213             -11.7886
        25        2.0000           -0.4307560             -11.7215
        26        2.0000           -0.4186952             -11.3933
        27        2.0000           -0.4127314             -11.2310
        28        2.0000           -0.4035741             -10.9818
        29        2.0000           -0.4009436             -10.9102
        30        2.0000           -0.4008825             -10.9086
        31        2.0000           -0.3959081             -10.7732 (HOMO)
        32                         -0.2405265              -6.5451 (LUMO)
        33                         -0.2374663              -6.4618
        34                         -0.2066329              -5.6228
        35                         -0.1141228              -3.1054
        36                         -0.0268679              -0.7311
        37                          0.0363168               0.9882
        38                          0.0372658               1.0141
        39                          0.0389653               1.0603
        40                          0.0747314               2.0335
        41                          0.0765112               2.0820
        42                          0.0986290               2.6838
       ...                                ...                  ...
        65                          0.6421490              17.4738
      -------------------------------------------------------------
                  HL-Gap            0.1553816 Eh            4.2281 eV

     #   Z          covCN         q      C6AA      α(0)
     1   7 N        3.484    -0.171    24.688     7.380
     2   6 C        3.734    -0.022    21.059     6.549
     3   6 C        3.810    -0.090    22.206     6.708
     4   6 C        2.969     0.023    27.492     8.601
     5   6 C        2.928    -0.042    29.047     8.839
     6   6 C        2.979    -0.041    29.009     8.835
     7   6 C        2.919     0.085    26.099     8.378
     8  35 Br       1.045    -0.236   191.638    22.320
     9   6 C        2.979    -0.039    28.961     8.828
    10   6 C        2.929    -0.038    28.937     8.822
    11  17 Cl       0.049    -0.946   124.844    17.005
    12   1 H        0.859     0.306     0.696     1.307
    13   1 H        0.859     0.301     0.711     1.321
    14   1 H        0.905     0.297     0.717     1.325
    15   1 H        0.924     0.109     1.705     2.042
    16   1 H        0.925     0.098     1.806     2.102
    17   1 H        0.924     0.080     1.979     2.200
    18   1 H        0.925     0.079     1.985     2.203
    19   1 H        0.926     0.075     2.027     2.227
    20   1 H        0.926     0.061     2.184     2.311
    21   1 H        0.926     0.052     2.299     2.371
    22   1 H        0.926     0.058     2.217     2.328

Wiberg/Mayer (AO) data.
largest (>0.10) Wiberg bond orders for each atom

     #   Z sym  total        # sym  WBO       # sym  WBO       # sym  WBO
 ---------------------------------------------------------------------------
     1   7 N    3.642 --     2 C    0.972    13 H    0.895    12 H    0.892
                            14 H    0.830
     2   6 C    3.932 --     3 C    0.991     1 N    0.972    16 H    0.969
                            15 H    0.967
     3   6 C    3.988 --     4 C    1.012     2 C    0.991    18 H    0.969
                            17 H    0.962
     4   6 C    3.989 --     5 C    1.412    10 C    1.405     3 C    1.012
     5   6 C    3.987 --     6 C    1.438     4 C    1.412    19 H    0.963
                             9 C    0.108
     6   6 C    3.988 --     5 C    1.438     7 C    1.414    20 H    0.967
                            10 C    0.109
     7   6 C    3.916 --     6 C    1.414     9 C    1.410     8 Br   0.949
     8  35 Br   1.077 --     7 C    0.949
     9   6 C    3.990 --    10 C    1.444     7 C    1.410    21 H    0.968
                             5 C    0.108
    10   6 C    3.989 --     9 C    1.444     4 C    1.405    22 H    0.965
                             6 C    0.109
    11  17 Cl   0.104
    12   1 H    0.906 --     1 N    0.892
    13   1 H    0.910 --     1 N    0.895
    14   1 H    0.912 --     1 N    0.830
    15   1 H    0.988 --     2 C    0.967
    16   1 H    0.990 --     2 C    0.969
    17   1 H    0.993 --     3 C    0.962
    18   1 H    0.993 --     3 C    0.969
    19   1 H    0.994 --     5 C    0.963
    20   1 H    0.996 --     6 C    0.967
    21   1 H    0.997 --     9 C    0.968
    22   1 H    0.997 --    10 C    0.965
 ---------------------------------------------------------------------------

molecular dipole:
                 x           y           z       tot (Debye)
 q only:       -0.302      -0.442      -5.510
   full:       -0.787      -0.410      -4.697      12.149

           -------------------------------------------------
          | TOTAL ENERGY              -34.329375635967 Eh   |
          | GRADIENT NORM               0.000479259160 Eh/α |
          | HOMO-LUMO GAP               4.228147973457 eV   |
           -------------------------------------------------

 * finished run on 2023/01/24 at 14:56:18.328
