   * xtb version 6.5.1 (fef0646) compiled by 'conda@b96dff2e9fd6' on 2023-01-04
          program call               : xtb init.xyz --opt -c 0 -u 0 -P 16 --alpb water

   ID    Z sym.   atoms
    1    7 N      1
    2    6 C      2-9
    3   17 Cl     10
    4    1 H      11-30

      * Solvation model:               ALPB
        Solvent                        water
        Solvent mass                       1.8000E+01 g/mol
          :  Hamiltonian                  GFN2-xTB          :
 * total energy  :   -34.8409341 Eh     change       -0.4977636E-09 Eh
 * total energy  :   -34.8447140 Eh     change       -0.3779932E-02 Eh
 * total energy  :   -34.8457912 Eh     change       -0.1077262E-02 Eh
 * total energy  :   -34.8460942 Eh     change       -0.3029635E-03 Eh
 * total energy  :   -34.8462697 Eh     change       -0.1754588E-03 Eh
 * total energy  :   -34.8465039 Eh     change       -0.2341896E-03 Eh
 * total energy  :   -34.8471991 Eh     change       -0.6952567E-03 Eh
 * total energy  :   -34.8478067 Eh     change       -0.6076141E-03 Eh
 * total energy  :   -34.8480982 Eh     change       -0.2914928E-03 Eh
 * total energy  :   -34.8484871 Eh     change       -0.3889148E-03 Eh
 * total energy  :   -34.8507220 Eh     change       -0.6216359E-04 Eh
 * total energy  :   -34.8507803 Eh     change       -0.5838264E-04 Eh
 * total energy  :   -34.8508209 Eh     change       -0.4051640E-04 Eh
 * total energy  :   -34.8508346 Eh     change       -0.1378380E-04 Eh
 * total energy  :   -34.8508587 Eh     change       -0.2403770E-04 Eh
 * total energy  :   -34.8508696 Eh     change       -0.1092386E-04 Eh
 * total energy  :   -34.8508999 Eh     change       -0.3034535E-04 Eh
 * total energy  :   -34.8509097 Eh     change       -0.9710968E-05 Eh
 * total energy  :   -34.8509133 Eh     change       -0.3656470E-05 Eh
   *** GEOMETRY OPTIMIZATION CONVERGED AFTER 27 ITERATIONS ***

 final structure:
================
30
 xtb: 6.5.1 (fef0646)
N            2.88752063870828        1.10458022917709       -2.56477338758967
C            4.35255785994010        0.94006411455605       -2.66801998518656
C            4.94676293140518        0.42484467211520       -1.36351076787774
C            4.58901423635312       -1.02916575645165       -1.04825386381303
C            5.14421684894477       -2.05546489897201       -2.03852195826622
C            6.66871329631916       -2.06144096037935       -2.13495692265260
C            7.17669573346128       -3.19760618913931       -3.01980586088666
C            8.69862877006488       -3.18919194202031       -3.14832619644383
C            9.19903507917902       -4.29941343540222       -4.06475425595156
Cl           0.99671742795715       -1.26553583476278       -2.13296604554753
H            2.49665161472245        1.49059863070253       -3.42692970845362
H            2.64695391315321        1.71632134478828       -1.78081673173039
H            2.38655113343815        0.19842085157578       -2.39725319585692
H            4.79342291907891        1.90914847343189       -2.90457292051668
H            4.57072030690106        0.24598166326493       -3.47715714077562
H            4.59976555814788        1.04871388790733       -0.53890855835268
H            6.03033308563981        0.52316913969409       -1.41126852533255
H            3.50463781714844       -1.14914585523782       -1.01465918448770
H            4.97190198786660       -1.26821632016244       -0.05372381304127
H            4.71409760571266       -1.89388980458376       -3.02813113130392
H            4.80728796322360       -3.04434164209200       -1.71569457754281
H            7.09281957508774       -2.16858857944397       -1.13377783876128
H            7.02090491838974       -1.11656826315715       -2.55057539468990
H            6.73105570732017       -3.10809289089622       -4.01361451552804
H            6.85443701419089       -4.15566546616536       -2.60369866138817
H            9.14392988713329       -3.30807841320433       -2.15794700296226
H            9.02112926754320       -2.22335340692130       -3.54318027691886
H            8.89830024357722       -5.27313657861840       -3.68384880082759
H           10.28381883820096       -4.27840712656819       -4.13573493334563
H            8.78618782119099       -4.18272964303386       -5.06439784397029

          :  Hamiltonian                  GFN2-xTB          :
         :: total energy             -34.850913317010 Eh    ::
         :: gradient norm              0.000417115706 Eh/a0 ::
         :: HOMO-LUMO gap             10.193376754609 eV    ::
         :: SCC energy               -35.288844790950 Eh    ::
         :: -> dispersion             -0.019634180011 Eh    ::
         :: -> Gsolv                  -0.072991729681 Eh    ::
         :: repulsion energy           0.437887608659 Eh    ::

    * Orbital Energies and Occupations

         #    Occupation            Energy/Eh            Energy/eV
      -------------------------------------------------------------
         1        2.0000           -1.0053887             -27.3580
       ...           ...                  ...                  ...
        20        2.0000           -0.4678532             -12.7309
        21        2.0000           -0.4561510             -12.4125
        22        2.0000           -0.4508665             -12.2687
        23        2.0000           -0.4397167             -11.9653
        24        2.0000           -0.4349997             -11.8369
        25        2.0000           -0.4300065             -11.7011
        26        2.0000           -0.4186379             -11.3917
        27        2.0000           -0.4170890             -11.3496
        28        2.0000           -0.4130091             -11.2385
        29        2.0000           -0.4099753             -11.1560
        30        2.0000           -0.4021984             -10.9444
        31        2.0000           -0.3997688             -10.8783
        32        2.0000           -0.3975766             -10.8186 (HOMO)
        33                         -0.0229769              -0.6252 (LUMO)
        34                          0.0612228               1.6660
        35                          0.0826028               2.2477
        36                          0.0920919               2.5059
        37                          0.0998521               2.7171
        38                          0.1070580               2.9132
        39                          0.1168311               3.1791
        40                          0.1183426               3.2203
        41                          0.1189347               3.2364
        42                          0.1200723               3.2673
        43                          0.1202560               3.2723
       ...                                ...                  ...
        65                          0.3265967               8.8871
      -------------------------------------------------------------
                  HL-Gap            0.3745997 Eh           10.1934 eV

     #   Z          covCN         q      C6AA      α(0)
     1   7 N        3.483    -0.164    24.534     7.357
     2   6 C        3.732    -0.027    21.153     6.565
     3   6 C        3.802    -0.081    22.036     6.683
     4   6 C        3.801    -0.069    21.822     6.651
     5   6 C        3.801    -0.059    21.630     6.621
     6   6 C        3.802    -0.066    21.758     6.641
     7   6 C        3.803    -0.061    21.678     6.629
     8   6 C        3.801    -0.059    21.633     6.622
     9   6 C        3.752    -0.110    22.665     6.789
    10  17 Cl       0.034    -0.951   125.024    17.017
    11   1 H        0.859     0.300     0.713     1.323
    12   1 H        0.859     0.294     0.730     1.339
    13   1 H        0.891     0.290     0.740     1.346
    14   1 H        0.924     0.106     1.732     2.058
    15   1 H        0.925     0.099     1.796     2.096
    16   1 H        0.924     0.063     2.161     2.299
    17   1 H        0.925     0.069     2.094     2.263
    18   1 H        0.924     0.048     2.350     2.397
    19   1 H        0.924     0.032     2.561     2.503
    20   1 H        0.924     0.035     2.516     2.480
    21   1 H        0.924     0.016     2.800     2.617
    22   1 H        0.924     0.030     2.584     2.514
    23   1 H        0.924     0.043     2.406     2.425
    24   1 H        0.924     0.030     2.586     2.515
    25   1 H        0.924     0.022     2.707     2.573
    26   1 H        0.924     0.030     2.592     2.518
    27   1 H        0.924     0.035     2.511     2.478
    28   1 H        0.925     0.032     2.560     2.502
    29   1 H        0.925     0.037     2.494     2.469
    30   1 H        0.925     0.036     2.506     2.476

Wiberg/Mayer (AO) data.
largest (>0.10) Wiberg bond orders for each atom

     #   Z sym  total        # sym  WBO       # sym  WBO       # sym  WBO
 ---------------------------------------------------------------------------
     1   7 N    3.648 --     2 C    0.965    12 H    0.897    11 H    0.895
                            13 H    0.840
     2   6 C    3.929 --     3 C    1.012    14 H    0.967     1 N    0.965
                            15 H    0.964
     3   6 C    3.992 --     2 C    1.012     4 C    1.008    16 H    0.972
                            17 H    0.967
     4   6 C    3.995 --     3 C    1.008     5 C    1.006    19 H    0.977
                            18 H    0.971
     5   6 C    3.996 --     6 C    1.008     4 C    1.006    21 H    0.977
                            20 H    0.974
     6   6 C    3.997 --     5 C    1.008     7 C    1.007    22 H    0.978
                            23 H    0.974
     7   6 C    3.997 --     8 C    1.008     6 C    1.007    25 H    0.978
                            24 H    0.977
     8   6 C    3.997 --     9 C    1.019     7 C    1.008    26 H    0.979
                            27 H    0.978
     9   6 C    3.996 --     8 C    1.019    28 H    0.988    30 H    0.988
                            29 H    0.987
    10  17 Cl   0.096
    11   1 H    0.910 --     1 N    0.895
    12   1 H    0.913 --     1 N    0.897
    13   1 H    0.916 --     1 N    0.840
    14   1 H    0.989 --     2 C    0.967
    15   1 H    0.990 --     2 C    0.964
    16   1 H    0.996 --     3 C    0.972
    17   1 H    0.995 --     3 C    0.967
    18   1 H    0.997 --     4 C    0.971
    19   1 H    0.999 --     4 C    0.977
    20   1 H    0.999 --     5 C    0.974
    21   1 H    1.000 --     5 C    0.977
    22   1 H    0.999 --     6 C    0.978
    23   1 H    0.998 --     6 C    0.974
    24   1 H    0.999 --     7 C    0.977
    25   1 H    1.000 --     7 C    0.978
    26   1 H    0.999 --     8 C    0.979
    27   1 H    0.999 --     8 C    0.978
    28   1 H    0.999 --     9 C    0.988
    29   1 H    0.998 --     9 C    0.987
    30   1 H    0.999 --     9 C    0.988
 ---------------------------------------------------------------------------

molecular dipole:
                 x           y           z       tot (Debye)
 q only:        3.644       4.399      -0.744
   full:        2.998       3.788      -0.659      12.392

           -------------------------------------------------
          | TOTAL ENERGY              -34.850913317010 Eh   |
          | GRADIENT NORM               0.000417115706 Eh/α |
          | HOMO-LUMO GAP              10.193376754609 eV   |
           -------------------------------------------------

 * finished run on 2023/01/24 at 16:09:42.363
