   * xtb version 6.5.1 (fef0646) compiled by 'conda@b96dff2e9fd6' on 2023-01-04
          program call               : xtb init.xyz --opt -c 0 -u 0 -P 16 --input xtb.inp

   ID    Z sym.   atoms
    1    7 N      1
    2    6 C      2-5
    3   17 Cl     6
    4    1 H      7-14

          :  Hamiltonian                  GFN2-xTB          :
 * total energy  :   -19.9892621 Eh     change       -0.7884786E-09 Eh
 * total energy  :   -20.0165891 Eh     change       -0.2732701E-01 Eh
 * total energy  :   -20.0217026 Eh     change       -0.5113550E-02 Eh
 * total energy  :   -20.0265044 Eh     change       -0.4801742E-02 Eh
 * total energy  :   -20.0290766 Eh     change       -0.2572288E-02 Eh
 * total energy  :   -20.0315527 Eh     change       -0.2476047E-02 Eh
 * total energy  :   -20.0328108 Eh     change       -0.1258120E-02 Eh
 * total energy  :   -20.0329701 Eh     change       -0.1592941E-03 Eh
 * total energy  :   -20.0334357 Eh     change       -0.4655641E-03 Eh
 * total energy  :   -20.0329804 Eh     change        0.4552991E-03 Eh
 * total energy  :   -20.0345244 Eh     change       -0.3487483E-04 Eh
 * total energy  :   -20.0345408 Eh     change       -0.1632764E-04 Eh
 * total energy  :   -20.0345515 Eh     change       -0.1073146E-04 Eh
 * total energy  :   -20.0345688 Eh     change       -0.1733949E-04 Eh
 * total energy  :   -20.0345784 Eh     change       -0.9553403E-05 Eh
 * total energy  :   -20.0345857 Eh     change       -0.7318160E-05 Eh
 * total energy  :   -20.0345834 Eh     change        0.2284177E-05 Eh
 * total energy  :   -20.0345919 Eh     change       -0.8534412E-05 Eh
 * total energy  :   -20.0345969 Eh     change       -0.4976139E-05 Eh
   *** GEOMETRY OPTIMIZATION CONVERGED AFTER 25 ITERATIONS ***

 final structure:
================
14
 xtb: 6.5.1 (fef0646)
N            1.11695620050449        0.25700361849563        0.53812027853470
C            2.55169379574149        0.16834004096163        0.27161982655358
C            2.83816660420799        0.70794841822753       -1.13250502914275
C            2.57941785662565        2.13202744819295       -1.19995877686457
C            2.34939940034989        3.30661689775242       -1.19637033984165
Cl          -0.23041076902708       -1.50538007186409       -1.37044826302987
H            0.89212591527235       -0.04020573523732        1.48132426485825
H            0.38937801621141       -0.66437048978295       -0.47117343432838
H            0.79568325308151        1.21121310541631        0.40106982776032
H            2.83655243817873       -0.88497482091515        0.32425323067976
H            3.14490793848388        0.72925040519935        1.00780900867871
H            2.19866247511361        0.19005325832785       -1.85005224081069
H            3.88229580512558        0.52083827353052       -1.39223596707759
H            2.16286107013094        4.33895965169619       -1.22960238596981

          :  Hamiltonian                  GFN2-xTB          :
         :: total energy             -20.034596920714 Eh    ::
         :: gradient norm              0.000969021751 Eh/a0 ::
         :: HOMO-LUMO gap              6.334758878126 eV    ::
         :: SCC energy               -20.322118654323 Eh    ::
         :: -> dispersion             -0.008211830384 Eh    ::
         :: repulsion energy           0.287496481450 Eh    ::

    * Orbital Energies and Occupations

         #    Occupation            Energy/Eh            Energy/eV
      -------------------------------------------------------------
         1        2.0000           -1.0175938             -27.6901
       ...           ...                  ...                  ...
         6        2.0000           -0.5604360             -15.2502
         7        2.0000           -0.5541724             -15.0798
         8        2.0000           -0.5396994             -14.6860
         9        2.0000           -0.5124176             -13.9436
        10        2.0000           -0.4938033             -13.4371
        11        2.0000           -0.4903845             -13.3440
        12        2.0000           -0.4836533             -13.1609
        13        2.0000           -0.4647889             -12.6476
        14        2.0000           -0.4191961             -11.4069
        15        2.0000           -0.4144468             -11.2777
        16        2.0000           -0.4000864             -10.8869
        17        2.0000           -0.3945531             -10.7363
        18        2.0000           -0.3944088             -10.7324 (HOMO)
        19                         -0.1616106              -4.3976 (LUMO)
        20                         -0.1549731              -4.2170
        21                         -0.0556371              -1.5140
        22                          0.0196689               0.5352
        23                          0.0524613               1.4275
        24                          0.0671261               1.8266
        25                          0.0675683               1.8386
        26                          0.0730105               1.9867
        27                          0.0731823               1.9914
        28                          0.1045307               2.8444
        29                          0.1072853               2.9194
       ...                                ...                  ...
        37                          1.4252517              38.7831
      -------------------------------------------------------------
                  HL-Gap            0.2327981 Eh            6.3348 eV

     #   Z          covCN         q      C6AA      α(0)
     1   7 N        2.707    -0.302    27.770     7.827
     2   6 C        3.737     0.013    20.441     6.452
     3   6 C        3.806    -0.057    21.593     6.615
     4   6 C        1.968    -0.025    31.733     9.097
     5   6 C        1.909    -0.114    34.283     9.456
     6  17 Cl       0.837    -0.493   115.411    16.435
     7   1 H        0.860     0.165     1.306     1.790
     8   1 H        0.912     0.332     0.621     1.232
     9   1 H        0.860     0.175     1.246     1.748
    10   1 H        0.924     0.053     2.278     2.360
    11   1 H        0.923     0.029     2.595     2.519
    12   1 H        0.924     0.085     1.928     2.172
    13   1 H        0.924     0.064     2.155     2.296
    14   1 H        0.928     0.075     2.034     2.230

Wiberg/Mayer (AO) data.
largest (>0.10) Wiberg bond orders for each atom

     #   Z sym  total        # sym  WBO       # sym  WBO       # sym  WBO
 ---------------------------------------------------------------------------
     1   7 N    3.249 --     2 C    1.007     7 H    0.959     9 H    0.953
                             8 H    0.215
     2   6 C    3.976 --     1 N    1.007     3 C    0.987    10 H    0.974
                            11 H    0.973
     3   6 C    3.994 --     4 C    1.054     2 C    0.987    13 H    0.953
                            12 H    0.949
     4   6 C    3.979 --     5 C    2.894     3 C    1.054
     5   6 C    3.974 --     4 C    2.894    14 H    0.971
     6  17 Cl   0.760 --     8 H    0.669
     7   1 H    0.973 --     1 N    0.959
     8   1 H    0.889 --     6 Cl   0.669     1 N    0.215
     9   1 H    0.970 --     1 N    0.953
    10   1 H    0.997 --     2 C    0.974
    11   1 H    0.999 --     2 C    0.973
    12   1 H    0.993 --     3 C    0.949
    13   1 H    0.996 --     3 C    0.953
    14   1 H    0.994 --     5 C    0.971
 ---------------------------------------------------------------------------

molecular dipole:
                 x           y           z       tot (Debye)
 q only:        1.077       0.995       1.159
   full:        0.904       0.932       1.171       4.446

           -------------------------------------------------
          | TOTAL ENERGY              -20.034596920714 Eh   |
          | GRADIENT NORM               0.000969021751 Eh/α |
          | HOMO-LUMO GAP               6.334758878126 eV   |
           -------------------------------------------------

 * finished run on 2023/01/23 at 18:58:55.678
