   * xtb version 6.5.1 (fef0646) compiled by 'conda@b96dff2e9fd6' on 2023-01-04
          program call               : xtb init.xyz --opt -c 0 -u 0 -P 16 --alpb water

   ID    Z sym.   atoms
    1    7 N      1
    2    6 C      2-5
    3   17 Cl     6
    4    1 H      7-14

      * Solvation model:               ALPB
        Solvent                        water
        Solvent mass                       1.8000E+01 g/mol
          :  Hamiltonian                  GFN2-xTB          :
 * total energy  :   -20.0673310 Eh     change       -0.2514646E-09 Eh
 * total energy  :   -20.0721569 Eh     change       -0.4825883E-02 Eh
 * total energy  :   -20.0733406 Eh     change       -0.1183701E-02 Eh
 * total energy  :   -20.0737746 Eh     change       -0.4339676E-03 Eh
 * total energy  :   -20.0744854 Eh     change       -0.7107836E-03 Eh
 * total energy  :   -20.0751345 Eh     change       -0.6491276E-03 Eh
 * total energy  :   -20.0760568 Eh     change       -0.9222937E-03 Eh
 * total energy  :   -20.0765778 Eh     change       -0.5209642E-03 Eh
 * total energy  :   -20.0768336 Eh     change       -0.2558671E-03 Eh
 * total energy  :   -20.0769479 Eh     change       -0.1143076E-03 Eh
 * total energy  :   -20.0771794 Eh     change       -0.7033819E-04 Eh
 * total energy  :   -20.0772697 Eh     change       -0.9030112E-04 Eh
 * total energy  :   -20.0773169 Eh     change       -0.4720619E-04 Eh
 * total energy  :   -20.0773608 Eh     change       -0.4388822E-04 Eh
 * total energy  :   -20.0773854 Eh     change       -0.2467004E-04 Eh
 * total energy  :   -20.0773986 Eh     change       -0.1316600E-04 Eh
 * total energy  :   -20.0774096 Eh     change       -0.1099080E-04 Eh
 * total energy  :   -20.0774129 Eh     change       -0.3331634E-05 Eh
 * total energy  :   -20.0774158 Eh     change       -0.2843056E-05 Eh
   *** GEOMETRY OPTIMIZATION CONVERGED AFTER 21 ITERATIONS ***

 final structure:
================
14
 xtb: 6.5.1 (fef0646)
N            1.11626223127152       -0.72604617555009       -0.07201946609740
C            2.52999319155236       -0.30963662258348        0.01855292913044
C            2.74795827462657        0.42510218115979        1.33959764757684
C            2.61554610267529       -0.47083893827047        2.47157084883243
C            2.50192969995147       -1.23881593064707        3.38282547412477
Cl          -0.55341832506287        1.83427334164155        0.00036474143903
H            0.92207824226487       -1.24346691404462       -0.93136866255493
H            0.50219279494672        0.12911448340303       -0.05940071684386
H            0.86662810758847       -1.29095818476087        0.74466993994694
H            2.74982193953002        0.36484772693173       -0.80765053647972
H            3.17578208923407       -1.18710687499001       -0.03731770512037
H            2.00699689098164        1.22466568708006        1.42408389607206
H            3.74196436814010        0.87358957857148        1.35930454930967
H            2.41132439230048       -1.89337335794162        4.19721706066497

          :  Hamiltonian                  GFN2-xTB          :
         :: total energy             -20.077415779157 Eh    ::
         :: gradient norm              0.000314713332 Eh/a0 ::
         :: HOMO-LUMO gap              6.749578240235 eV    ::
         :: SCC energy               -20.373834025485 Eh    ::
         :: -> dispersion             -0.007629995771 Eh    ::
         :: -> Gsolv                  -0.071349548400 Eh    ::
         :: repulsion energy           0.296392657444 Eh    ::

    * Orbital Energies and Occupations

         #    Occupation            Energy/Eh            Energy/eV
      -------------------------------------------------------------
         1        2.0000           -1.0068697             -27.3983
       ...           ...                  ...                  ...
         6        2.0000           -0.5680461             -15.4573
         7        2.0000           -0.5649065             -15.3719
         8        2.0000           -0.5414582             -14.7338
         9        2.0000           -0.5127267             -13.9520
        10        2.0000           -0.4857717             -13.2185
        11        2.0000           -0.4808203             -13.0838
        12        2.0000           -0.4686265             -12.7520
        13        2.0000           -0.4465030             -12.1500
        14        2.0000           -0.4074549             -11.0874
        15        2.0000           -0.4036194             -10.9830
        16        2.0000           -0.4020001             -10.9390
        17        2.0000           -0.4006138             -10.9013
        18        2.0000           -0.3978098             -10.8250 (HOMO)
        19                         -0.1497674              -4.0754 (LUMO)
        20                         -0.1415825              -3.8527
        21                         -0.0211812              -0.5764
        22                          0.0656466               1.7863
        23                          0.0823798               2.2417
        24                          0.1071343               2.9153
        25                          0.1159430               3.1550
        26                          0.1169087               3.1812
        27                          0.1181461               3.2149
        28                          0.1191047               3.2410
        29                          0.1194474               3.2503
       ...                                ...                  ...
        37                          1.4376959              39.1217
      -------------------------------------------------------------
                  HL-Gap            0.2480424 Eh            6.7496 eV

     #   Z          covCN         q      C6AA      α(0)
     1   7 N        3.484    -0.166    24.573     7.362
     2   6 C        3.737    -0.021    21.038     6.545
     3   6 C        3.806    -0.064    21.728     6.636
     4   6 C        1.967    -0.029    31.828     9.111
     5   6 C        1.909    -0.133    34.832     9.531
     6  17 Cl       0.049    -0.947   124.869    17.007
     7   1 H        0.860     0.304     0.703     1.313
     8   1 H        0.905     0.296     0.722     1.329
     9   1 H        0.859     0.289     0.746     1.353
    10   1 H        0.925     0.102     1.770     2.081
    11   1 H        0.924     0.108     1.712     2.046
    12   1 H        0.924     0.085     1.932     2.174
    13   1 H        0.924     0.090     1.881     2.145
    14   1 H        0.928     0.086     1.915     2.164

Wiberg/Mayer (AO) data.
largest (>0.10) Wiberg bond orders for each atom

     #   Z sym  total        # sym  WBO       # sym  WBO       # sym  WBO
 ---------------------------------------------------------------------------
     1   7 N    3.647 --     2 C    0.969     9 H    0.898     7 H    0.894
                             8 H    0.831
     2   6 C    3.932 --     3 C    0.992     1 N    0.969    10 H    0.968
                            11 H    0.967
     3   6 C    3.992 --     4 C    1.055     2 C    0.992    12 H    0.946
                            13 H    0.946
     4   6 C    3.979 --     5 C    2.892     3 C    1.055
     5   6 C    3.972 --     4 C    2.892    14 H    0.969
     6  17 Cl   0.103
     7   1 H    0.908 --     1 N    0.894
     8   1 H    0.912 --     1 N    0.831
     9   1 H    0.916 --     1 N    0.898
    10   1 H    0.989 --     2 C    0.968
    11   1 H    0.988 --     2 C    0.967
    12   1 H    0.993 --     3 C    0.946
    13   1 H    0.992 --     3 C    0.946
    14   1 H    0.992 --     5 C    0.969
 ---------------------------------------------------------------------------

molecular dipole:
                 x           y           z       tot (Debye)
 q only:        3.248      -4.242      -0.303
   full:        2.678      -3.717      -0.273      11.665

           -------------------------------------------------
          | TOTAL ENERGY              -20.077415779157 Eh   |
          | GRADIENT NORM               0.000314713332 Eh/α |
          | HOMO-LUMO GAP               6.749578240235 eV   |
           -------------------------------------------------

 * finished run on 2023/01/24 at 15:21:52.500
