   * xtb version 6.5.1 (fef0646) compiled by 'conda@b96dff2e9fd6' on 2023-01-04
          program call               : xtb init.xyz --opt -c 0 -u 0 -P 16 --input xtb.inp

   ID    Z sym.   atoms
    1    7 N      1
    2    6 C      2-5
    3    8 O      6, 7
    4   17 Cl     8
    5    1 H      9-18

          :  Hamiltonian                  GFN2-xTB          :
 * total energy  :   -29.2334168 Eh     change       -0.1415660E-08 Eh
 * total energy  :   -29.2383973 Eh     change       -0.4980495E-02 Eh
 * total energy  :   -29.2449465 Eh     change       -0.6549202E-02 Eh
 * total energy  :   -29.2510005 Eh     change       -0.6053977E-02 Eh
 * total energy  :   -29.2563235 Eh     change       -0.5322996E-02 Eh
 * total energy  :   -29.2589456 Eh     change       -0.2622166E-02 Eh
 * total energy  :   -29.2605013 Eh     change       -0.1555692E-02 Eh
 * total energy  :   -29.2619859 Eh     change       -0.1484564E-02 Eh
 * total energy  :   -29.2630261 Eh     change       -0.1040176E-02 Eh
 * total energy  :   -29.2634069 Eh     change       -0.3808487E-03 Eh
 * total energy  :   -29.2651716 Eh     change       -0.5439520E-04 Eh
 * total energy  :   -29.2651906 Eh     change       -0.1897437E-04 Eh
 * total energy  :   -29.2652082 Eh     change       -0.1761522E-04 Eh
 * total energy  :   -29.2652203 Eh     change       -0.1209677E-04 Eh
 * total energy  :   -29.2652360 Eh     change       -0.1572838E-04 Eh
 * total energy  :   -29.2652539 Eh     change       -0.1793761E-04 Eh
 * total energy  :   -29.2652639 Eh     change       -0.1000581E-04 Eh
 * total energy  :   -29.2652708 Eh     change       -0.6876994E-05 Eh
 * total energy  :   -29.2652745 Eh     change       -0.3657884E-05 Eh
   *** GEOMETRY OPTIMIZATION CONVERGED AFTER 31 ITERATIONS ***

 final structure:
================
18
 xtb: 6.5.1 (fef0646)
N            0.97834197920698        0.33411580999566       -0.24118911678295
C            2.43399239265979        0.24665850253297       -0.24798544917340
C            3.11179647594464        1.29958237004553       -1.12785291554768
C            4.63116129206066        1.16579143041045       -1.10084151240959
C            5.29493847014840        2.19160846068999       -2.00416808501068
O            6.63998561781036        2.14733246623539       -2.00646251278506
O            4.70454254302947        2.98356507772662       -2.67530987714513
Cl          -0.02456523911102       -1.82490718938609        1.49630303466527
H            0.41434043831815       -0.82194386943833        0.69246963089015
H            0.60713813724365        0.21551902472024       -1.17808595971384
H            0.67315680233425        1.23612865554867        0.10972796376444
H            2.69933864739624       -0.75556144685975       -0.59340606345638
H            2.77295592758910        0.34876412542315        0.78589508138923
H            2.83775132580408        2.30069962872307       -0.78760799401683
H            2.76707943122369        1.19974567587797       -2.15944390029853
H            4.92537055485174        0.16663752300948       -1.43649864876792
H            5.00338091836291        1.30229647517065       -0.08123794044507
H            6.99812428512649        1.46498727957591       -1.42398573516315

          :  Hamiltonian                  GFN2-xTB          :
         :: total energy             -29.265274477155 Eh    ::
         :: gradient norm              0.000611287443 Eh/a0 ::
         :: HOMO-LUMO gap              4.188888575488 eV    ::
         :: SCC energy               -29.525345342312 Eh    ::
         :: -> dispersion             -0.010349559219 Eh    ::
         :: repulsion energy           0.260117509632 Eh    ::

    * Orbital Energies and Occupations

         #    Occupation            Energy/Eh            Energy/eV
      -------------------------------------------------------------
         1        2.0000           -1.0232626             -27.8444
       ...           ...                  ...                  ...
        13        2.0000           -0.5427625             -14.7693
        14        2.0000           -0.5344146             -14.5422
        15        2.0000           -0.5322293             -14.4827
        16        2.0000           -0.5158857             -14.0380
        17        2.0000           -0.4945172             -13.4565
        18        2.0000           -0.4926838             -13.4066
        19        2.0000           -0.4872659             -13.2592
        20        2.0000           -0.4807771             -13.0826
        21        2.0000           -0.4602804             -12.5249
        22        2.0000           -0.4339777             -11.8091
        23        2.0000           -0.4082632             -11.1094
        24        2.0000           -0.4004711             -10.8974
        25        2.0000           -0.4003951             -10.8953 (HOMO)
        26                         -0.2464563              -6.7064 (LUMO)
        27                         -0.0634021              -1.7253
        28                          0.0036832               0.1002
        29                          0.0383201               1.0427
        30                          0.0473120               1.2874
        31                          0.0598885               1.6297
        32                          0.0599266               1.6307
        33                          0.0658727               1.7925
        34                          0.0658741               1.7925
        35                          0.0874740               2.3803
        36                          0.0993593               2.7037
       ...                                ...                  ...
        47                          0.6428967              17.4941
      -------------------------------------------------------------
                  HL-Gap            0.1539388 Eh            4.1889 eV

     #   Z          covCN         q      C6AA      α(0)
     1   7 N        2.670    -0.310    27.983     7.856
     2   6 C        3.732    -0.002    20.705     6.495
     3   6 C        3.802    -0.068    21.800     6.647
     4   6 C        3.802    -0.103    22.459     6.747
     5   6 C        2.688     0.358    20.922     7.486
     6   8 O        1.659    -0.371    20.298     6.082
     7   8 O        0.856    -0.360    20.897     6.129
     8  17 Cl       0.839    -0.469   114.555    16.374
     9   1 H        0.880     0.332     0.624     1.237
    10   1 H        0.860     0.169     1.281     1.773
    11   1 H        0.860     0.168     1.283     1.774
    12   1 H        0.924     0.055     2.256     2.349
    13   1 H        0.924     0.055     2.261     2.351
    14   1 H        0.924     0.053     2.286     2.364
    15   1 H        0.924     0.055     2.264     2.353
    16   1 H        0.924     0.060     2.199     2.319
    17   1 H        0.924     0.058     2.217     2.328
    18   1 H        0.805     0.320     0.664     1.280

Wiberg/Mayer (AO) data.
largest (>0.10) Wiberg bond orders for each atom

     #   Z sym  total        # sym  WBO       # sym  WBO       # sym  WBO
 ---------------------------------------------------------------------------
     1   7 N    3.222 --     2 C    1.013    11 H    0.958    10 H    0.958
                             9 H    0.184
     2   6 C    3.976 --     1 N    1.013     3 C    1.000    13 H    0.973
                            12 H    0.973
     3   6 C    3.993 --     4 C    1.007     2 C    1.000    14 H    0.975
                            15 H    0.975
     4   6 C    3.996 --     3 C    1.007     5 C    0.967    17 H    0.957
                            16 H    0.955
     5   6 C    3.918 --     7 O    1.805     6 O    1.114     4 C    0.967
     6   8 O    2.199 --     5 C    1.114    18 H    0.876     7 O    0.163
     7   8 O    2.082 --     5 C    1.805     6 O    0.163
     8  17 Cl   0.782 --     9 H    0.703
     9   1 H    0.890 --     8 Cl   0.703     1 N    0.184
    10   1 H    0.972 --     1 N    0.958
    11   1 H    0.972 --     1 N    0.958
    12   1 H    0.997 --     2 C    0.973
    13   1 H    0.997 --     2 C    0.973
    14   1 H    0.997 --     3 C    0.975
    15   1 H    0.997 --     3 C    0.975
    16   1 H    0.996 --     4 C    0.955
    17   1 H    0.997 --     4 C    0.957
    18   1 H    0.898 --     6 O    0.876
 ---------------------------------------------------------------------------

molecular dipole:
                 x           y           z       tot (Debye)
 q only:        1.015       0.280      -0.175
   full:        1.032      -0.046       0.105       2.638

           -------------------------------------------------
          | TOTAL ENERGY              -29.265274477155 Eh   |
          | GRADIENT NORM               0.000611287443 Eh/α |
          | HOMO-LUMO GAP               4.188888575488 eV   |
           -------------------------------------------------

 * finished run on 2023/01/23 at 19:53:08.233
