   * xtb version 6.5.1 (fef0646) compiled by 'conda@b96dff2e9fd6' on 2023-01-04
          program call               : xtb init.xyz --opt -c 1 -u 0 -P 16 --alpb water

   ID    Z sym.   atoms
    1    7 N      1
    2    6 C      2-13
    3    1 H      14-27

      * Solvation model:               ALPB
        Solvent                        water
        Solvent mass                       1.8000E+01 g/mol
          :  Hamiltonian                  GFN2-xTB          :
 * total energy  :   -35.4214788 Eh     change       -0.3564793E-09 Eh
 * total energy  :   -35.4252853 Eh     change       -0.3806562E-02 Eh
 * total energy  :   -35.4259437 Eh     change       -0.6583516E-03 Eh
 * total energy  :   -35.4260197 Eh     change       -0.7598597E-04 Eh
 * total energy  :   -35.4260649 Eh     change       -0.4517816E-04 Eh
 * total energy  :   -35.4260804 Eh     change       -0.1550660E-04 Eh
 * total energy  :   -35.4261023 Eh     change       -0.2189984E-04 Eh
 * total energy  :   -35.4261267 Eh     change       -0.2442789E-04 Eh
 * total energy  :   -35.4261447 Eh     change       -0.1798140E-04 Eh
 * total energy  :   -35.4261754 Eh     change       -0.3074007E-04 Eh
 * total energy  :   -35.4263469 Eh     change       -0.2748936E-04 Eh
 * total energy  :   -35.4263732 Eh     change       -0.2626276E-04 Eh
 * total energy  :   -35.4264080 Eh     change       -0.3486510E-04 Eh
 * total energy  :   -35.4264486 Eh     change       -0.4062392E-04 Eh
 * total energy  :   -35.4264621 Eh     change       -0.1341074E-04 Eh
 * total energy  :   -35.4264726 Eh     change       -0.1052151E-04 Eh
 * total energy  :   -35.4264822 Eh     change       -0.9647668E-05 Eh
 * total energy  :   -35.4264877 Eh     change       -0.5438656E-05 Eh
 * total energy  :   -35.4264915 Eh     change       -0.3869738E-05 Eh
   *** GEOMETRY OPTIMIZATION CONVERGED AFTER 25 ITERATIONS ***

 final structure:
================
27
 xtb: 6.5.1 (fef0646)
N            2.74283129724920        2.37523787862228       -1.55929868587231
C            2.47090088147104        1.25935906060582       -0.62055267475384
C            3.06727088498144       -0.04005047796626       -1.15956851219831
C            4.57286587990793        0.01731329499167       -1.21109619517968
C            5.31492340383187       -0.07792423427205       -0.06109703038936
C            6.72215487051578       -0.01599602607227       -0.08905402928466
C            7.49932245862898       -0.12053764081274        1.08413950832640
C            8.86331331754260       -0.06804244437176        1.02291557623598
C            9.51392370369358        0.09403415821906       -0.21163040863638
C            8.78937571473306        0.20069797927449       -1.36548386138326
C            7.38020725853948        0.14858474290199       -1.33653053227912
C            6.59898680842372        0.24459164218657       -2.50659899354246
C            5.23481417711541        0.18560571729713       -2.44406200380235
H            2.38905319523741        3.26456230627397       -1.18849682841478
H            2.29493453749609        2.19343067454697       -2.46524891182516
H            3.75563067248085        2.45661403416100       -1.71143025634375
H            1.39441358897427        1.14787958880377       -0.49757655410932
H            2.91564881284932        1.49197850609455        0.34655716111445
H            2.67218069293947       -0.25180062017568       -2.15292221837440
H            2.76400106000616       -0.85455334717924       -0.50235139371579
H            4.83044070641077       -0.22025297727764        0.89406566423319
H            6.99957533146674       -0.24714011024231        2.03366424486307
H            9.45489784635629       -0.15125962841129        1.92298906027934
H           10.59329346678237        0.13201682500826       -0.23887694371802
H            9.28801704241618        0.32353540982281       -2.31656626333373
H            7.10276850413520        0.36102332181293       -3.45513141444100
H            4.65845388581428        0.24034236615900       -3.35561750345558

          :  Hamiltonian                  GFN2-xTB          :
         :: total energy             -35.426491530646 Eh    ::
         :: gradient norm              0.000305470541 Eh/a0 ::
         :: HOMO-LUMO gap              3.203017348388 eV    ::
         :: SCC energy               -36.068985166536 Eh    ::
         :: -> dispersion             -0.023873405911 Eh    ::
         :: -> Gsolv                  -0.118326016578 Eh    ::
         :: repulsion energy           0.642403802480 Eh    ::

    * Orbital Energies and Occupations

         #    Occupation            Energy/Eh            Energy/eV
      -------------------------------------------------------------
         1        2.0000           -0.6929987             -18.8575
       ...           ...                  ...                  ...
        21        2.0000           -0.4850762             -13.1996
        22        2.0000           -0.4789979             -13.0342
        23        2.0000           -0.4767554             -12.9732
        24        2.0000           -0.4717260             -12.8363
        25        2.0000           -0.4598129             -12.5121
        26        2.0000           -0.4511059             -12.2752
        27        2.0000           -0.4482508             -12.1975
        28        2.0000           -0.4387883             -11.9400
        29        2.0000           -0.4255076             -11.5787
        30        2.0000           -0.4177196             -11.3667
        31        2.0000           -0.4136601             -11.2563
        32        2.0000           -0.3992742             -10.8648
        33        2.0000           -0.3784000             -10.2968 (HOMO)
        34                         -0.2606913              -7.0938 (LUMO)
        35                         -0.2294972              -6.2449
        36                         -0.1897490              -5.1633
        37                         -0.1476327              -4.0173
        38                         -0.0582082              -1.5839
        39                         -0.0460429              -1.2529
        40                          0.0589462               1.6040
        41                          0.0788778               2.1464
        42                          0.1006242               2.7381
        43                          0.1113804               3.0308
        44                          0.1159027               3.1539
       ...                                ...                  ...
        66                          0.6958755              18.9357
      -------------------------------------------------------------
                  HL-Gap            0.1177087 Eh            3.2030 eV

     #   Z          covCN         q      C6AA      α(0)
     1   7 N        3.485    -0.155    24.332     7.326
     2   6 C        3.733    -0.037    21.321     6.591
     3   6 C        3.809    -0.095    22.300     6.722
     4   6 C        2.966     0.008    27.829     8.653
     5   6 C        2.923    -0.052    29.290     8.875
     6   6 C        2.986     0.010    27.797     8.648
     7   6 C        2.918    -0.042    29.053     8.839
     8   6 C        2.916    -0.035    28.864     8.810
     9   6 C        2.916    -0.035    28.868     8.811
    10   6 C        2.918    -0.041    29.011     8.832
    11   6 C        2.987     0.007    27.852     8.657
    12   6 C        2.916    -0.041    29.017     8.833
    13   6 C        2.919    -0.053    29.318     8.879
    14   1 H        0.859     0.317     0.665     1.277
    15   1 H        0.859     0.310     0.685     1.297
    16   1 H        0.859     0.295     0.730     1.338
    17   1 H        0.925     0.117     1.641     2.003
    18   1 H        0.925     0.109     1.702     2.040
    19   1 H        0.925     0.081     1.971     2.195
    20   1 H        0.925     0.081     1.965     2.192
    21   1 H        0.926     0.048     2.340     2.392
    22   1 H        0.926     0.038     2.474     2.460
    23   1 H        0.926     0.024     2.672     2.556
    24   1 H        0.926     0.022     2.709     2.574
    25   1 H        0.926     0.029     2.602     2.523
    26   1 H        0.926     0.032     2.558     2.501
    27   1 H        0.926     0.057     2.234     2.337

Wiberg/Mayer (AO) data.
largest (>0.10) Wiberg bond orders for each atom

     #   Z sym  total        # sym  WBO       # sym  WBO       # sym  WBO
 ---------------------------------------------------------------------------
     1   7 N    3.657 --     2 C    0.965    16 H    0.894    15 H    0.889
                            14 H    0.886
     2   6 C    3.924 --     3 C    0.999    18 H    0.965     1 N    0.965
                            17 H    0.965
     3   6 C    3.988 --     4 C    1.009     2 C    0.999    19 H    0.968
                            20 H    0.959
     4   6 C    3.988 --     5 C    1.521    13 C    1.299     3 C    1.009
     5   6 C    3.990 --     4 C    1.521     6 C    1.286    21 H    0.965
                            12 C    0.117
     6   6 C    3.990 --     5 C    1.286     7 C    1.275    11 C    1.250
     7   6 C    3.989 --     8 C    1.560     6 C    1.275    22 H    0.968
                            10 C    0.119
     8   6 C    3.992 --     7 C    1.560     9 C    1.319    23 H    0.971
     9   6 C    3.990 --    10 C    1.559     8 C    1.319    24 H    0.972
    10   6 C    3.991 --     9 C    1.559    11 C    1.278    25 H    0.969
                             7 C    0.119
    11   6 C    3.990 --    12 C    1.281    10 C    1.278     6 C    1.250
    12   6 C    3.991 --    13 C    1.555    11 C    1.281    26 H    0.968
                             5 C    0.117
    13   6 C    3.988 --    12 C    1.555     4 C    1.299    27 H    0.966
    14   1 H    0.899 --     1 N    0.886
    15   1 H    0.904 --     1 N    0.889
    16   1 H    0.913 --     1 N    0.894
    17   1 H    0.986 --     2 C    0.965
    18   1 H    0.988 --     2 C    0.965
    19   1 H    0.993 --     3 C    0.968
    20   1 H    0.993 --     3 C    0.959
    21   1 H    0.997 --     5 C    0.965
    22   1 H    0.998 --     7 C    0.968
    23   1 H    0.999 --     8 C    0.971
    24   1 H    0.999 --     9 C    0.972
    25   1 H    0.999 --    10 C    0.969
    26   1 H    0.998 --    12 C    0.968
    27   1 H    0.996 --    13 C    0.966
 ---------------------------------------------------------------------------

molecular dipole:
                 x           y           z       tot (Debye)
 q only:        4.585       4.215      -2.865
   full:        4.977       4.212      -2.879      18.116

           -------------------------------------------------
          | TOTAL ENERGY              -35.426491530646 Eh   |
          | GRADIENT NORM               0.000305470541 Eh/α |
          | HOMO-LUMO GAP               3.203017348388 eV   |
           -------------------------------------------------

 * finished run on 2023/01/24 at 14:56:08.698
