   * xtb version 6.5.1 (fef0646) compiled by 'conda@b96dff2e9fd6' on 2023-01-04
          program call               : xtb init.xyz --opt -c 1 -u 0 -P 16

   ID    Z sym.   atoms
    1    7 N      1
    2    6 C      2-9
    3    1 H      10-29

          :  Hamiltonian                  GFN2-xTB          :
 * total energy  :   -29.8252482 Eh     change       -0.7923262E-10 Eh
 * total energy  :   -29.8265772 Eh     change       -0.1329017E-02 Eh
 * total energy  :   -29.8267040 Eh     change       -0.1267858E-03 Eh
 * total energy  :   -29.8267237 Eh     change       -0.1967577E-04 Eh
 * total energy  :   -29.8267258 Eh     change       -0.2183587E-05 Eh
   *** GEOMETRY OPTIMIZATION CONVERGED AFTER 5 ITERATIONS ***

 final structure:
================
29
 xtb: 6.5.1 (fef0646)
N            0.86364466906875        0.05390776476322       -0.11270810274230
C            2.36297163062806        0.04793292568785       -0.10179235419352
C            2.88406362241042       -0.60858710280392        1.16747508713813
C            4.41567367118122       -0.61906693527433        1.18781437751477
C            4.95321826823534       -1.27766656532983        2.45756233580617
C            6.48015760815498       -1.29177504317994        2.48598762685634
C            7.01661402439741       -1.95062122347199        3.75477333446487
C            8.54315307172758       -1.96854417443870        3.78938752326977
C            9.06965878696466       -2.62726289794822        5.05825953546834
H            0.49258626342414        0.49406807906434       -0.96397358489039
H            0.51423042409459        0.56735750402806        0.70745604907013
H            0.51391272885907       -0.91201859155199       -0.05734407720931
H            2.71196574759028        1.07924188821518       -0.16736095849026
H            2.71159983305849       -0.49480707869854       -0.98132891107556
H            2.52542681254367       -1.63780203203383        1.23088924290846
H            2.52536628431932       -0.06569571753938        2.04412386521651
H            4.78771680386193        0.40480907277665        1.12876651054243
H            4.78777137683603       -1.16058750810789        0.31688201181672
H            4.58412156797311       -2.30341121428512        2.51924577198386
H            4.58343700049986       -0.73783725980223        3.33164733279984
H            6.85343565062256       -0.26727811862813        2.42623337347099
H            6.85409262978200       -1.83177007813427        1.61358809396523
H            6.64409840286650       -2.97566107460589        3.81564917694807
H            6.64401763907705       -1.41084682628882        4.62827150757258
H            8.91751665763056       -0.94432150401891        3.72990412372766
H            8.91754987554988       -2.50924195719266        2.91748870604269
H            8.72432647659797       -2.09092229803805        5.93924262198599
H           10.15641054564540       -2.62967986184401        5.06287366359006
H            8.72428192639919       -3.65638217131862        5.12656611644173

          :  Hamiltonian                  GFN2-xTB          :
         :: total energy             -29.826725846375 Eh    ::
         :: gradient norm              0.000471737077 Eh/a0 ::
         :: HOMO-LUMO gap              5.984379797133 eV    ::
         :: SCC energy               -30.264006921964 Eh    ::
         :: -> dispersion             -0.015845393724 Eh    ::
         :: repulsion energy           0.437422413640 Eh    ::

    * Orbital Energies and Occupations

         #    Occupation            Energy/Eh            Energy/eV
      -------------------------------------------------------------
         1        2.0000           -0.8976949             -24.4275
       ...           ...                  ...                  ...
        16        2.0000           -0.6113588             -16.6359
        17        2.0000           -0.6050529             -16.4643
        18        2.0000           -0.5814565             -15.8222
        19        2.0000           -0.5812467             -15.8165
        20        2.0000           -0.5590552             -15.2127
        21        2.0000           -0.5582749             -15.1914
        22        2.0000           -0.5496160             -14.9558
        23        2.0000           -0.5332511             -14.5105
        24        2.0000           -0.5271096             -14.3434
        25        2.0000           -0.5084092             -13.8345
        26        2.0000           -0.5048096             -13.7366
        27        2.0000           -0.4953676             -13.4796
        28        2.0000           -0.4876224             -13.2689 (HOMO)
        29                         -0.2677005              -7.2845 (LUMO)
        30                         -0.1643661              -4.4726
        31                         -0.1057267              -2.8770
        32                         -0.1038728              -2.8265
        33                         -0.0613105              -1.6683
        34                         -0.0437667              -1.1910
        35                         -0.0181945              -0.4951
        36                         -0.0067042              -0.1824
        37                          0.0069029               0.1878
        38                          0.0260208               0.7081
        39                          0.0295069               0.8029
       ...                                ...                  ...
        56                          0.2445367               6.6542
      -------------------------------------------------------------
                  HL-Gap            0.2199219 Eh            5.9844 eV

     #   Z          covCN         q      C6AA      α(0)
     1   7 N        3.482    -0.128    23.767     7.241
     2   6 C        3.731    -0.034    21.273     6.584
     3   6 C        3.803    -0.081    22.043     6.684
     4   6 C        3.804    -0.067    21.775     6.643
     5   6 C        3.803    -0.064    21.718     6.635
     6   6 C        3.803    -0.063    21.702     6.632
     7   6 C        3.803    -0.062    21.682     6.629
     8   6 C        3.801    -0.055    21.556     6.610
     9   6 C        3.752    -0.106    22.582     6.777
    10   1 H        0.859     0.270     0.811     1.411
    11   1 H        0.859     0.272     0.802     1.403
    12   1 H        0.859     0.272     0.802     1.403
    13   1 H        0.924     0.107     1.724     2.053
    14   1 H        0.924     0.107     1.724     2.053
    15   1 H        0.924     0.062     2.178     2.308
    16   1 H        0.924     0.062     2.178     2.308
    17   1 H        0.924     0.050     2.320     2.382
    18   1 H        0.924     0.050     2.320     2.382
    19   1 H        0.924     0.041     2.438     2.442
    20   1 H        0.924     0.041     2.438     2.442
    21   1 H        0.924     0.037     2.493     2.469
    22   1 H        0.924     0.037     2.493     2.469
    23   1 H        0.924     0.035     2.520     2.482
    24   1 H        0.924     0.035     2.520     2.482
    25   1 H        0.924     0.033     2.550     2.497
    26   1 H        0.924     0.033     2.550     2.497
    27   1 H        0.925     0.037     2.488     2.466
    28   1 H        0.925     0.042     2.427     2.436
    29   1 H        0.925     0.037     2.488     2.466

Wiberg/Mayer (AO) data.
largest (>0.10) Wiberg bond orders for each atom

     #   Z sym  total        # sym  WBO       # sym  WBO       # sym  WBO
 ---------------------------------------------------------------------------
     1   7 N    3.675 --     2 C    0.919    10 H    0.913    11 H    0.910
                            12 H    0.910
     2   6 C    3.883 --     3 C    1.008    14 H    0.967    13 H    0.967
                             1 N    0.919
     3   6 C    3.979 --     2 C    1.008     4 C    0.993    16 H    0.972
                            15 H    0.972
     4   6 C    3.987 --     5 C    1.004     3 C    0.993    17 H    0.976
                            18 H    0.976
     5   6 C    3.993 --     6 C    1.005     4 C    1.004    20 H    0.977
                            19 H    0.977
     6   6 C    3.995 --     7 C    1.006     5 C    1.005    21 H    0.977
                            22 H    0.977
     7   6 C    3.996 --     8 C    1.007     6 C    1.006    24 H    0.977
                            23 H    0.977
     8   6 C    3.997 --     9 C    1.019     7 C    1.007    25 H    0.978
                            26 H    0.978
     9   6 C    3.996 --     8 C    1.019    29 H    0.988    27 H    0.988
                            28 H    0.987
    10   1 H    0.927 --     1 N    0.913
    11   1 H    0.926 --     1 N    0.910
    12   1 H    0.926 --     1 N    0.910
    13   1 H    0.989 --     2 C    0.967
    14   1 H    0.989 --     2 C    0.967
    15   1 H    0.996 --     3 C    0.972
    16   1 H    0.996 --     3 C    0.972
    17   1 H    0.997 --     4 C    0.976
    18   1 H    0.997 --     4 C    0.976
    19   1 H    0.998 --     5 C    0.977
    20   1 H    0.998 --     5 C    0.977
    21   1 H    0.999 --     6 C    0.977
    22   1 H    0.999 --     6 C    0.977
    23   1 H    0.999 --     7 C    0.977
    24   1 H    0.999 --     7 C    0.977
    25   1 H    0.999 --     8 C    0.978
    26   1 H    0.999 --     8 C    0.978
    27   1 H    0.999 --     9 C    0.988
    28   1 H    0.998 --     9 C    0.987
    29   1 H    0.999 --     9 C    0.988
 ---------------------------------------------------------------------------

molecular dipole:
                 x           y           z       tot (Debye)
 q only:        2.791      -0.152       0.277
   full:        2.431      -0.091       0.159       6.197

           -------------------------------------------------
          | TOTAL ENERGY              -29.826725846375 Eh   |
          | GRADIENT NORM               0.000471737077 Eh/α |
          | HOMO-LUMO GAP               5.984379797133 eV   |
           -------------------------------------------------

 * finished run on 2023/01/23 at 14:16:55.399
