   * xtb version 6.5.1 (fef0646) compiled by 'conda@b96dff2e9fd6' on 2023-01-04
          program call               : xtb init.xyz --opt -c 0 -u 0 -P 16 --alpb water

   ID    Z sym.   atoms
    1    7 N      1
    2    6 C      2-5
    3   17 Cl     6
    4    1 H      7-18

      * Solvation model:               ALPB
        Solvent                        water
        Solvent mass                       1.8000E+01 g/mol
          :  Hamiltonian                  GFN2-xTB          :
 * total energy  :   -22.1900691 Eh     change       -0.2954224E-09 Eh
 * total energy  :   -22.1931839 Eh     change       -0.3114828E-02 Eh
 * total energy  :   -22.1938725 Eh     change       -0.6885623E-03 Eh
 * total energy  :   -22.1940280 Eh     change       -0.1555033E-03 Eh
 * total energy  :   -22.1940593 Eh     change       -0.3135781E-04 Eh
 * total energy  :   -22.1940883 Eh     change       -0.2893005E-04 Eh
 * total energy  :   -22.1941022 Eh     change       -0.1394685E-04 Eh
 * total energy  :   -22.1941273 Eh     change       -0.2510653E-04 Eh
 * total energy  :   -22.1941371 Eh     change       -0.9825370E-05 Eh
 * total energy  :   -22.1941470 Eh     change       -0.9901792E-05 Eh
 * total energy  :   -22.1941504 Eh     change       -0.3399404E-05 Eh
   *** GEOMETRY OPTIMIZATION CONVERGED AFTER 11 ITERATIONS ***

 final structure:
================
18
 xtb: 6.5.1 (fef0646)
N            1.17387679872691        0.10615295878627       -0.33795114434600
C            2.65054809172163        0.13449182622462       -0.32028520059657
C            3.13965451595818        1.20976175281494        0.64119752252870
C            4.66176217450130        1.20313315409482        0.76937515120011
C            5.14721271791801        2.31090957571050        1.69672370793974
Cl           0.10669969557552       -0.49531529950021        2.46586374551284
H            0.81686021868936       -0.61081772288438       -0.97285966783309
H            0.79742177783737        1.01987603369022       -0.60191738364675
H            0.80996681573642       -0.10914294101210        0.62528307755591
H            3.02369224991411        0.32961579564798       -1.32655523344247
H            3.01166971574591       -0.83830311548127        0.01267367870567
H            2.68962101949057        1.03322079900006        1.62014202864792
H            2.81894257559252        2.19376759353243        0.29606499631430
H            5.11220003285865        1.33600377521858       -0.21605123298793
H            4.98892615759218        0.23809956116265        1.16039229705715
H            4.86467308906871        3.28709425591766        1.30952044754344
H            6.22927129411071        2.28189519455567        1.79729092930543
H            4.70841105896191        2.19719680252153        2.68582228054163

          :  Hamiltonian                  GFN2-xTB          :
         :: total energy             -22.194150442089 Eh    ::
         :: gradient norm              0.000301291507 Eh/a0 ::
         :: HOMO-LUMO gap             10.149367723379 eV    ::
         :: SCC energy               -22.444749706441 Eh    ::
         :: -> dispersion             -0.009164794505 Eh    ::
         :: -> Gsolv                  -0.072269047831 Eh    ::
         :: repulsion energy           0.250567747527 Eh    ::

    * Orbital Energies and Occupations

         #    Occupation            Energy/Eh            Energy/eV
      -------------------------------------------------------------
         1        2.0000           -1.0062240             -27.3807
       ...           ...                  ...                  ...
         8        2.0000           -0.5445847             -14.8189
         9        2.0000           -0.5332146             -14.5095
        10        2.0000           -0.5094271             -13.8622
        11        2.0000           -0.4877318             -13.2719
        12        2.0000           -0.4760920             -12.9551
        13        2.0000           -0.4663273             -12.6894
        14        2.0000           -0.4402277             -11.9792
        15        2.0000           -0.4399316             -11.9711
        16        2.0000           -0.4323286             -11.7643
        17        2.0000           -0.4186019             -11.3907
        18        2.0000           -0.4028321             -10.9616
        19        2.0000           -0.4004367             -10.8964
        20        2.0000           -0.4001372             -10.8883 (HOMO)
        21                         -0.0271548              -0.7389 (LUMO)
        22                          0.0709160               1.9297
        23                          0.0946907               2.5767
        24                          0.0994540               2.7063
        25                          0.1167650               3.1773
        26                          0.1173674               3.1937
        27                          0.1194263               3.2498
        28                          0.1197227               3.2578
        29                          0.1260367               3.4296
        30                          0.1334875               3.6324
        31                          0.1543458               4.2000
       ...                                ...                  ...
        41                          0.3178666               8.6496
      -------------------------------------------------------------
                  HL-Gap            0.3729824 Eh           10.1494 eV

     #   Z          covCN         q      C6AA      α(0)
     1   7 N        3.484    -0.169    24.655     7.375
     2   6 C        3.733    -0.026    21.131     6.561
     3   6 C        3.804    -0.078    21.996     6.677
     4   6 C        3.801    -0.062    21.698     6.632
     5   6 C        3.752    -0.113    22.716     6.797
     6  17 Cl       0.048    -0.948   124.912    17.010
     7   1 H        0.859     0.304     0.703     1.313
     8   1 H        0.859     0.297     0.724     1.333
     9   1 H        0.904     0.293     0.732     1.338
    10   1 H        0.924     0.103     1.754     2.071
    11   1 H        0.925     0.094     1.839     2.121
    12   1 H        0.924     0.054     2.273     2.358
    13   1 H        0.924     0.060     2.201     2.320
    14   1 H        0.924     0.047     2.360     2.403
    15   1 H        0.924     0.037     2.495     2.470
    16   1 H        0.925     0.041     2.434     2.440
    17   1 H        0.925     0.037     2.484     2.465
    18   1 H        0.925     0.031     2.567     2.505

Wiberg/Mayer (AO) data.
largest (>0.10) Wiberg bond orders for each atom

     #   Z sym  total        # sym  WBO       # sym  WBO       # sym  WBO
 ---------------------------------------------------------------------------
     1   7 N    3.645 --     2 C    0.968     8 H    0.897     7 H    0.894
                             9 H    0.834
     2   6 C    3.931 --     3 C    1.009    11 H    0.969     1 N    0.968
                            10 H    0.968
     3   6 C    3.992 --     2 C    1.009     4 C    1.006    12 H    0.974
                            13 H    0.974
     4   6 C    3.997 --     5 C    1.019     3 C    1.006    15 H    0.978
                            14 H    0.977
     5   6 C    3.996 --     4 C    1.019    18 H    0.988    16 H    0.987
                            17 H    0.987
     6  17 Cl   0.101
     7   1 H    0.907 --     1 N    0.894
     8   1 H    0.912 --     1 N    0.897
     9   1 H    0.914 --     1 N    0.834
    10   1 H    0.989 --     2 C    0.968
    11   1 H    0.991 --     2 C    0.969
    12   1 H    0.997 --     3 C    0.974
    13   1 H    0.996 --     3 C    0.974
    14   1 H    0.998 --     4 C    0.977
    15   1 H    0.999 --     4 C    0.978
    16   1 H    0.998 --     5 C    0.987
    17   1 H    0.998 --     5 C    0.987
    18   1 H    0.999 --     5 C    0.988
 ---------------------------------------------------------------------------

molecular dipole:
                 x           y           z       tot (Debye)
 q only:        2.167       1.144      -5.000
   full:        1.756       0.985      -4.349      12.181

           -------------------------------------------------
          | TOTAL ENERGY              -22.194150442089 Eh   |
          | GRADIENT NORM               0.000301291507 Eh/α |
          | HOMO-LUMO GAP              10.149367723379 eV   |
           -------------------------------------------------

 * finished run on 2023/01/24 at 14:57:47.541
