   * xtb version 6.5.1 (fef0646) compiled by 'conda@b96dff2e9fd6' on 2023-01-04
          program call               : xtb init.xyz --opt -c 1 -u 0 -P 16

   ID    Z sym.   atoms
    1    7 N      1
    2    6 C      2-5
    3   35 Br     6
    4    1 H      7-17

          :  Hamiltonian                  GFN2-xTB          :
 * total energy  :   -20.7322991 Eh     change       -0.5974243E-10 Eh
 * total energy  :   -20.7332294 Eh     change       -0.9303274E-03 Eh
 * total energy  :   -20.7333605 Eh     change       -0.1310955E-03 Eh
 * total energy  :   -20.7333805 Eh     change       -0.2003808E-04 Eh
 * total energy  :   -20.7333858 Eh     change       -0.5274962E-05 Eh
 * total energy  :   -20.7333871 Eh     change       -0.1310161E-05 Eh
   *** GEOMETRY OPTIMIZATION CONVERGED AFTER 6 ITERATIONS ***

 final structure:
================
17
 xtb: 6.5.1 (fef0646)
N            1.05050201902229       -0.03532881470968        0.07140357489239
C            2.54752400048941       -0.03002203928269        0.03416234787899
C            3.05172539089299        0.12568539186906       -1.39376831130176
C            4.58403278884853        0.12838591848385       -1.41640546844790
C            5.11968346472631        0.28180461172100       -2.83229561671454
Br           7.08310255491058        0.27855110850524       -2.80168995743925
H            0.70139745096800       -0.14016382426037        1.03272005786290
H            0.68802694413478       -0.81190937716433       -0.49813732064005
H            0.68660607192245        0.84490293325136       -0.31797541533155
H            2.90613237144958       -0.96733978759088        0.46219158861251
H            2.90468587084617        0.79391620571227        0.65378358016576
H            2.68823462157502        1.06274190913921       -1.82066032537284
H            2.68855536850934       -0.69759284490438       -2.01245465621978
H            4.96101332651667       -0.80427472394948       -0.99323971591679
H            4.96076113836276        0.94889690794777       -0.80332532384821
H            4.81643919354994        1.22663325463096       -3.28087882530951
H            4.81651742327518       -0.54508682939892       -3.47279021287038

          :  Hamiltonian                  GFN2-xTB          :
         :: total energy             -20.733387134680 Eh    ::
         :: gradient norm              0.000300055588 Eh/a0 ::
         :: HOMO-LUMO gap              4.921789201366 eV    ::
         :: SCC energy               -20.969671389892 Eh    ::
         :: -> dispersion             -0.008711226383 Eh    ::
         :: repulsion energy           0.236302998172 Eh    ::

    * Orbital Energies and Occupations

         #    Occupation            Energy/Eh            Energy/eV
      -------------------------------------------------------------
         1        2.0000           -0.9231680             -25.1207
       ...           ...                  ...                  ...
         7        2.0000           -0.7580514             -20.6276
         8        2.0000           -0.7423279             -20.1998
         9        2.0000           -0.7096695             -19.3111
        10        2.0000           -0.7053087             -19.1924
        11        2.0000           -0.6715308             -18.2733
        12        2.0000           -0.6600280             -17.9603
        13        2.0000           -0.6441362             -17.5278
        14        2.0000           -0.6252389             -17.0136
        15        2.0000           -0.6111641             -16.6306
        16        2.0000           -0.5838789             -15.8882
        17        2.0000           -0.5814596             -15.8223
        18        2.0000           -0.4970589             -13.5257
        19        2.0000           -0.4946828             -13.4610 (HOMO)
        20                         -0.3138104              -8.5392 (LUMO)
        21                         -0.2775019              -7.5512
        22                         -0.1738433              -4.7305
        23                         -0.1188674              -3.2345
        24                         -0.1154093              -3.1404
        25                         -0.0818021              -2.2259
        26                         -0.0693176              -1.8862
        27                         -0.0516273              -1.4049
        28                         -0.0486179              -1.3230
        29                         -0.0336330              -0.9152
        30                         -0.0323648              -0.8807
       ...                                ...                  ...
        40                          0.2747560               7.4765
      -------------------------------------------------------------
                  HL-Gap            0.1808724 Eh            4.9218 eV

     #   Z          covCN         q      C6AA      α(0)
     1   7 N        3.483    -0.127    23.752     7.238
     2   6 C        3.732    -0.035    21.285     6.585
     3   6 C        3.802    -0.083    22.078     6.690
     4   6 C        3.872    -0.069    21.766     6.634
     5   6 C        3.740     0.012    20.457     6.453
     6  35 Br       0.985    -0.162   189.498    22.195
     7   1 H        0.859     0.274     0.797     1.398
     8   1 H        0.859     0.274     0.796     1.397
     9   1 H        0.859     0.274     0.796     1.397
    10   1 H        0.924     0.112     1.680     2.027
    11   1 H        0.924     0.112     1.680     2.027
    12   1 H        0.924     0.066     2.129     2.282
    13   1 H        0.924     0.066     2.129     2.282
    14   1 H        0.924     0.071     2.077     2.254
    15   1 H        0.924     0.071     2.076     2.253
    16   1 H        0.926     0.072     2.063     2.246
    17   1 H        0.926     0.072     2.063     2.246

Wiberg/Mayer (AO) data.
largest (>0.10) Wiberg bond orders for each atom

     #   Z sym  total        # sym  WBO       # sym  WBO       # sym  WBO
 ---------------------------------------------------------------------------
     1   7 N    3.675 --     2 C    0.924     7 H    0.911     9 H    0.909
                             8 H    0.909
     2   6 C    3.885 --     3 C    1.009    11 H    0.966    10 H    0.966
                             1 N    0.924
     3   6 C    3.983 --     2 C    1.009     4 C    0.992    12 H    0.972
                            13 H    0.972
     4   6 C    3.987 --     5 C    1.015     3 C    0.992    15 H    0.974
                            14 H    0.974
     5   6 C    3.961 --     4 C    1.015     6 Br   0.981    16 H    0.976
                            17 H    0.976
     6  35 Br   1.026 --     5 C    0.981
     7   1 H    0.925 --     1 N    0.911
     8   1 H    0.925 --     1 N    0.909
     9   1 H    0.925 --     1 N    0.909
    10   1 H    0.987 --     2 C    0.966
    11   1 H    0.987 --     2 C    0.966
    12   1 H    0.996 --     3 C    0.972
    13   1 H    0.996 --     3 C    0.972
    14   1 H    0.995 --     4 C    0.974
    15   1 H    0.995 --     4 C    0.974
    16   1 H    0.995 --     5 C    0.976
    17   1 H    0.995 --     5 C    0.976
 ---------------------------------------------------------------------------

molecular dipole:
                 x           y           z       tot (Debye)
 q only:        2.065      -0.039      -0.112
   full:        1.430      -0.033      -0.173       3.662

           -------------------------------------------------
          | TOTAL ENERGY              -20.733387134680 Eh   |
          | GRADIENT NORM               0.000300055588 Eh/α |
          | HOMO-LUMO GAP               4.921789201366 eV   |
           -------------------------------------------------

 * finished run on 2023/01/23 at 14:14:01.653
