   * xtb version 6.5.1 (fef0646) compiled by 'conda@b96dff2e9fd6' on 2023-01-04
          program call               : xtb init.xyz --opt -c 1 -u 0 -P 16 --alpb water

   ID    Z sym.   atoms
    1    7 N      1
    2    6 C      2-5
    3    1 H      6-15

      * Solvation model:               ALPB
        Solvent                        water
        Solvent mass                       1.8000E+01 g/mol
          :  Hamiltonian                  GFN2-xTB          :
 * total energy  :   -16.2373058 Eh     change       -0.1836753E-11 Eh
 * total energy  :   -16.2412845 Eh     change       -0.3978699E-02 Eh
 * total energy  :   -16.2415810 Eh     change       -0.2965389E-03 Eh
 * total energy  :   -16.2418534 Eh     change       -0.2724186E-03 Eh
 * total energy  :   -16.2419659 Eh     change       -0.1124140E-03 Eh
 * total energy  :   -16.2420612 Eh     change       -0.9534476E-04 Eh
 * total energy  :   -16.2421468 Eh     change       -0.8558695E-04 Eh
 * total energy  :   -16.2422011 Eh     change       -0.5428120E-04 Eh
 * total energy  :   -16.2422355 Eh     change       -0.3443682E-04 Eh
 * total energy  :   -16.2422470 Eh     change       -0.1153480E-04 Eh
 * total energy  :   -16.2422548 Eh     change       -0.7792112E-05 Eh
 * total energy  :   -16.2422610 Eh     change       -0.6142057E-05 Eh
 * total energy  :   -16.2422680 Eh     change       -0.7049720E-05 Eh
 * total energy  :   -16.2422738 Eh     change       -0.5758146E-05 Eh
 * total energy  :   -16.2422761 Eh     change       -0.2364507E-05 Eh
   *** GEOMETRY OPTIMIZATION CONVERGED AFTER 15 ITERATIONS ***

 final structure:
================
15
 xtb: 6.5.1 (fef0646)
N            1.05576242027532        0.05665684090896        0.15184191529947
C            2.52668698005744        0.06460322814202       -0.02327314785134
C            3.27717275953437       -1.03259989165769        0.74328033584349
C            4.19354966199592        0.04282059628236        1.35391828045894
C            3.27025538399111        1.13570079564669        0.78553719844217
H            0.64332452154129       -0.77059089652260       -0.29637738121005
H            0.63878438980573        0.90048345506645       -0.25999877509512
H            0.82616794452768        0.03465333897593        1.15356488526215
H            2.75976128222911        0.08636827434439       -1.08704334701476
H            3.77253603444253       -1.78401450794827        0.13536721001874
H            2.66592313701882       -1.53379895090426        1.48880642834147
H            5.18901000569424        0.05369297444038        0.91899378278382
H            4.29155472963950        0.02177957687428        2.43573741607304
H            3.76033883845468        1.91355830825634        0.20731945128693
H            2.65535191079224        1.60347685809502        1.54985574736102

          :  Hamiltonian                  GFN2-xTB          :
         :: total energy             -16.242276149647 Eh    ::
         :: gradient norm              0.000278384611 Eh/a0 ::
         :: HOMO-LUMO gap             10.291611180808 eV    ::
         :: SCC energy               -16.472753976060 Eh    ::
         :: -> dispersion             -0.006726532388 Eh    ::
         :: -> Gsolv                  -0.113730054700 Eh    ::
         :: repulsion energy           0.230466784147 Eh    ::

    * Orbital Energies and Occupations

         #    Occupation            Energy/Eh            Energy/eV
      -------------------------------------------------------------
         1        2.0000           -0.6959822             -18.9386
       ...           ...                  ...                  ...
         3        2.0000           -0.6253295             -17.0161
         4        2.0000           -0.6108616             -16.6224
         5        2.0000           -0.5920843             -16.1114
         6        2.0000           -0.5747002             -15.6384
         7        2.0000           -0.5667910             -15.4232
         8        2.0000           -0.5437330             -14.7957
         9        2.0000           -0.5251607             -14.2904
        10        2.0000           -0.4934026             -13.4262
        11        2.0000           -0.4859617             -13.2237
        12        2.0000           -0.4750938             -12.9280
        13        2.0000           -0.4424569             -12.0399
        14        2.0000           -0.4336496             -11.8002
        15        2.0000           -0.4261881             -11.5972 (HOMO)
        16                         -0.0479784              -1.3056 (LUMO)
        17                          0.0203129               0.5527
        18                          0.0226600               0.6166
        19                          0.0404997               1.1021
        20                          0.0612511               1.6667
        21                          0.1017423               2.7685
        22                          0.1446860               3.9371
        23                          0.1526374               4.1535
        24                          0.1653337               4.4990
        25                          0.1887275               5.1355
        26                          0.2050897               5.5808
       ...                                ...                  ...
        30                          0.3779879              10.2856
      -------------------------------------------------------------
                  HL-Gap            0.3782098 Eh           10.2916 eV

     #   Z          covCN         q      C6AA      α(0)
     1   7 N        3.484    -0.170    24.658     7.375
     2   6 C        3.969     0.022    20.127     6.374
     3   6 C        3.980    -0.088    22.094     6.678
     4   6 C        3.988    -0.072    21.789     6.632
     5   6 C        3.980    -0.088    22.094     6.678
     6   1 H        0.859     0.315     0.670     1.283
     7   1 H        0.859     0.315     0.671     1.283
     8   1 H        0.859     0.307     0.693     1.304
     9   1 H        0.925     0.101     1.778     2.085
    10   1 H        0.925     0.059     2.208     2.324
    11   1 H        0.925     0.075     2.034     2.230
    12   1 H        0.925     0.043     2.415     2.430
    13   1 H        0.925     0.046     2.370     2.408
    14   1 H        0.925     0.059     2.208     2.324
    15   1 H        0.925     0.075     2.034     2.230

Wiberg/Mayer (AO) data.
largest (>0.10) Wiberg bond orders for each atom

     #   Z sym  total        # sym  WBO       # sym  WBO       # sym  WBO
 ---------------------------------------------------------------------------
     1   7 N    3.650 --     2 C    0.955     8 H    0.888     6 H    0.885
                             7 H    0.885
     2   6 C    3.932 --     5 C    0.997     3 C    0.997     9 H    0.962
                             1 N    0.955
     3   6 C    3.985 --     4 C    1.005     2 C    0.997    10 H    0.980
                            11 H    0.974
     4   6 C    3.991 --     3 C    1.005     5 C    1.004    12 H    0.983
                            13 H    0.982
     5   6 C    3.985 --     4 C    1.004     2 C    0.997    14 H    0.980
                            15 H    0.974
     6   1 H    0.901 --     1 N    0.885
     7   1 H    0.901 --     1 N    0.885
     8   1 H    0.906 --     1 N    0.888
     9   1 H    0.990 --     2 C    0.962
    10   1 H    0.996 --     3 C    0.980
    11   1 H    0.994 --     3 C    0.974
    12   1 H    0.998 --     4 C    0.983
    13   1 H    0.998 --     4 C    0.982
    14   1 H    0.996 --     5 C    0.980
    15   1 H    0.994 --     5 C    0.974
 ---------------------------------------------------------------------------

molecular dipole:
                 x           y           z       tot (Debye)
 q only:        2.269       0.106       0.398
   full:        2.178       0.106       0.393       5.632

           -------------------------------------------------
          | TOTAL ENERGY              -16.242276149647 Eh   |
          | GRADIENT NORM               0.000278384611 Eh/α |
          | HOMO-LUMO GAP              10.291611180808 eV   |
           -------------------------------------------------

 * finished run on 2023/01/24 at 15:10:52.098
