   * xtb version 6.5.1 (fef0646) compiled by 'conda@b96dff2e9fd6' on 2023-01-04
          program call               : xtb init.xyz --opt -c 0 -u 0 -P 16

   ID    Z sym.   atoms
    1    7 N      1
    2    6 C      2-7
    3   17 Cl     8
    4    1 H      9-22

          :  Hamiltonian                  GFN2-xTB          :
 * total energy  :   -27.4598368 Eh     change       -0.5518146E-09 Eh
 * total energy  :   -27.4658628 Eh     change       -0.6026008E-02 Eh
 * total energy  :   -27.4706592 Eh     change       -0.4796365E-02 Eh
 * total energy  :   -27.4739625 Eh     change       -0.3303337E-02 Eh
 * total energy  :   -27.4750809 Eh     change       -0.1118350E-02 Eh
 * total energy  :   -27.4756788 Eh     change       -0.5978964E-03 Eh
 * total energy  :   -27.4762458 Eh     change       -0.5670326E-03 Eh
 * total energy  :   -27.4767410 Eh     change       -0.4951370E-03 Eh
 * total energy  :   -27.4770403 Eh     change       -0.2992953E-03 Eh
 * total energy  :   -27.4772125 Eh     change       -0.1722749E-03 Eh
 * total energy  :   -27.4772855 Eh     change       -0.7295720E-04 Eh
 * total energy  :   -27.4773034 Eh     change       -0.1793101E-04 Eh
 * total energy  :   -27.4773175 Eh     change       -0.1406511E-04 Eh
 * total energy  :   -27.4773249 Eh     change       -0.7366644E-05 Eh
 * total energy  :   -27.4773290 Eh     change       -0.4178684E-05 Eh
   *** GEOMETRY OPTIMIZATION CONVERGED AFTER 15 ITERATIONS ***

 final structure:
================
22
 xtb: 6.5.1 (fef0646)
N           -1.74817342741944        0.06814839611240        0.54661870747505
C           -1.01731162288860        0.04439299010390       -0.72808025939234
C           -0.11285145319840        1.27279735255004       -0.84605452478401
C            1.07627160771968        1.21515585532535        0.10767253398596
C            1.87662037547309       -0.06258936242159       -0.11622380574990
C            0.98520495070467       -1.27953758752605        0.10225634943357
C           -0.20473261062117       -1.24614158056956       -0.85161268494644
Cl          -0.61153334806002        0.02191299946196        3.22622163042873
H           -2.30587823042046        0.91361260308774        0.61473006621428
H           -1.04614557365997        0.04018976159841        1.89556334024984
H           -2.36529257421435       -0.73523336351978        0.61117337905049
H           -1.73918350500202        0.07256405049586       -1.56405252994391
H           -0.69950966410626        2.17478171770505       -0.65684070653516
H            0.25285469885865        1.32466737391606       -1.87408313314612
H            0.72551568404901        1.24277940225660        1.13830590013314
H            1.71028159114661        2.08805797539130       -0.05928714254786
H            2.72065272371836       -0.09488773053673        0.57384973496648
H            2.27366038641968       -0.07489338392732       -1.13490942671082
H            0.63316953969577       -1.28598294092179        1.13282585547228
H            1.55391164826115       -2.19562606483165       -0.06857285453631
H           -0.85562462355926       -2.10378320038888       -0.66637436454599
H            0.15649342710352       -1.31996526336126       -1.87987606457083

          :  Hamiltonian                  GFN2-xTB          :
         :: total energy             -27.477329035362 Eh    ::
         :: gradient norm              0.000433137544 Eh/a0 ::
         :: HOMO-LUMO gap              9.043635591991 eV    ::
         :: SCC energy               -27.789880072196 Eh    ::
         :: -> dispersion             -0.016998602174 Eh    ::
         :: repulsion energy           0.312415182219 Eh    ::

    * Orbital Energies and Occupations

         #    Occupation            Energy/Eh            Energy/eV
      -------------------------------------------------------------
         1        2.0000           -1.0151994             -27.6250
       ...           ...                  ...                  ...
        13        2.0000           -0.4971726             -13.5288
        14        2.0000           -0.4922556             -13.3950
        15        2.0000           -0.4745679             -12.9137
        16        2.0000           -0.4714969             -12.8301
        17        2.0000           -0.4709399             -12.8149
        18        2.0000           -0.4657775             -12.6745
        19        2.0000           -0.4393615             -11.9556
        20        2.0000           -0.4235447             -11.5252
        21        2.0000           -0.4216532             -11.4738
        22        2.0000           -0.4186183             -11.3912
        23        2.0000           -0.3945652             -10.7367
        24        2.0000           -0.3915692             -10.6551
        25        2.0000           -0.3904611             -10.6250 (HOMO)
        26                         -0.0581136              -1.5814 (LUMO)
        27                          0.0174319               0.4743
        28                          0.0681483               1.8544
        29                          0.0703736               1.9150
        30                          0.0710499               1.9334
        31                          0.0746145               2.0304
        32                          0.0757594               2.0615
        33                          0.0764765               2.0810
        34                          0.0879626               2.3936
        35                          0.0998245               2.7164
        36                          0.1050492               2.8585
       ...                                ...                  ...
        51                          0.3161725               8.6035
      -------------------------------------------------------------
                  HL-Gap            0.3323475 Eh            9.0436 eV

     #   Z          covCN         q      C6AA      α(0)
     1   7 N        2.741    -0.298    27.679     7.814
     2   6 C        3.782     0.052    19.724     6.326
     3   6 C        3.807    -0.065    21.741     6.638
     4   6 C        3.805    -0.068    21.800     6.647
     5   6 C        3.806    -0.058    21.608     6.617
     6   6 C        3.805    -0.068    21.800     6.647
     7   6 C        3.807    -0.065    21.741     6.638
     8  17 Cl       0.833    -0.508   115.948    16.473
     9   1 H        0.860     0.168     1.286     1.776
    10   1 H        0.941     0.333     0.618     1.229
    11   1 H        0.860     0.168     1.286     1.776
    12   1 H        0.922     0.012     2.862     2.646
    13   1 H        0.924     0.032     2.555     2.500
    14   1 H        0.924     0.040     2.451     2.448
    15   1 H        0.925     0.061     2.183     2.310
    16   1 H        0.924     0.033     2.542     2.493
    17   1 H        0.924     0.035     2.513     2.479
    18   1 H        0.924     0.029     2.597     2.520
    19   1 H        0.925     0.061     2.183     2.310
    20   1 H        0.924     0.033     2.542     2.493
    21   1 H        0.924     0.032     2.556     2.500
    22   1 H        0.924     0.040     2.451     2.448

Wiberg/Mayer (AO) data.
largest (>0.10) Wiberg bond orders for each atom

     #   Z sym  total        # sym  WBO       # sym  WBO       # sym  WBO
 ---------------------------------------------------------------------------
     1   7 N    3.268 --     2 C    0.986     9 H    0.956    11 H    0.956
                            10 H    0.238
     2   6 C    3.972 --     3 C    0.995     7 C    0.995     1 N    0.986
                            12 H    0.964
     3   6 C    3.996 --     4 C    1.008     2 C    0.995    14 H    0.975
                            13 H    0.975
     4   6 C    3.995 --     5 C    1.009     3 C    1.008    16 H    0.977
                            15 H    0.971
     5   6 C    3.998 --     6 C    1.009     4 C    1.009    18 H    0.977
                            17 H    0.977
     6   6 C    3.995 --     5 C    1.009     7 C    1.008    20 H    0.977
                            19 H    0.971
     7   6 C    3.996 --     6 C    1.008     2 C    0.995    22 H    0.975
                            21 H    0.975
     8  17 Cl   0.750 --    10 H    0.640
     9   1 H    0.972 --     1 N    0.956
    10   1 H    0.889 --     8 Cl   0.640     1 N    0.238
    11   1 H    0.972 --     1 N    0.956
    12   1 H    1.000 --     2 C    0.964
    13   1 H    0.999 --     3 C    0.975
    14   1 H    0.998 --     3 C    0.975
    15   1 H    0.996 --     4 C    0.971
    16   1 H    0.999 --     4 C    0.977
    17   1 H    0.999 --     5 C    0.977
    18   1 H    0.999 --     5 C    0.977
    19   1 H    0.996 --     6 C    0.971
    20   1 H    0.999 --     6 C    0.977
    21   1 H    0.999 --     7 C    0.975
    22   1 H    0.998 --     7 C    0.975
 ---------------------------------------------------------------------------

molecular dipole:
                 x           y           z       tot (Debye)
 q only:       -0.531       0.023      -1.866
   full:       -0.763       0.031      -1.614       4.538

           -------------------------------------------------
          | TOTAL ENERGY              -27.477329035362 Eh   |
          | GRADIENT NORM               0.000433137544 Eh/α |
          | HOMO-LUMO GAP               9.043635591991 eV   |
           -------------------------------------------------

 * finished run on 2023/01/23 at 13:42:46.746
