   * xtb version 6.5.1 (fef0646) compiled by 'conda@b96dff2e9fd6' on 2023-01-04
          program call               : xtb init.xyz --opt -c 0 -u 0 -P 16

   ID    Z sym.   atoms
    1    7 N      1
    2    6 C      2-7, 10, 11
    3    8 O      8, 9
    4   17 Cl     12
    5    1 H      13-28

          :  Hamiltonian                  GFN2-xTB          :
 * total energy  :   -40.8957409 Eh     change       -0.1615703E-08 Eh
 * total energy  :   -40.9036927 Eh     change       -0.7951845E-02 Eh
 * total energy  :   -40.9093860 Eh     change       -0.5693281E-02 Eh
 * total energy  :   -40.9133340 Eh     change       -0.3947977E-02 Eh
 * total energy  :   -40.9158785 Eh     change       -0.2544502E-02 Eh
 * total energy  :   -40.9172671 Eh     change       -0.1388644E-02 Eh
 * total energy  :   -40.9182660 Eh     change       -0.9988776E-03 Eh
 * total energy  :   -40.9187295 Eh     change       -0.4634349E-03 Eh
 * total energy  :   -40.9190579 Eh     change       -0.3284757E-03 Eh
 * total energy  :   -40.9191596 Eh     change       -0.1016336E-03 Eh
 * total energy  :   -40.9199955 Eh     change        0.4085231E-04 Eh
 * total energy  :   -40.9201126 Eh     change       -0.1171109E-03 Eh
 * total energy  :   -40.9201305 Eh     change       -0.1792903E-04 Eh
 * total energy  :   -40.9201514 Eh     change       -0.2087494E-04 Eh
 * total energy  :   -40.9201596 Eh     change       -0.8167511E-05 Eh
 * total energy  :   -40.9201674 Eh     change       -0.7803502E-05 Eh
 * total energy  :   -40.9201737 Eh     change       -0.6338984E-05 Eh
 * total energy  :   -40.9201808 Eh     change       -0.7145887E-05 Eh
 * total energy  :   -40.9201854 Eh     change       -0.4557143E-05 Eh
   *** GEOMETRY OPTIMIZATION CONVERGED AFTER 40 ITERATIONS ***

 final structure:
================
28
 xtb: 6.5.1 (fef0646)
N            1.18819305207131       -0.43030582762163       -0.11673182370682
C            2.60871508756894       -0.28522708118582        0.21526281431293
C            2.87975832811726        0.85683660277205        1.20658064460695
C            1.89920441119653        0.84882870004225        2.38095640933713
C            2.23846390038245        1.95597142469440        3.37363088634598
C            2.19308495495399        3.31544040823318        2.67949589807423
C            2.55531761403001        4.43382367861019        3.64158816697289
O            2.19803640064314        5.66671152859321        3.23164824066674
O            3.13781076866772        4.27888292285037        4.67497410614308
C            3.19032078123563        3.33037328574823        1.51182303260228
C            2.85397407996450        2.22240732395896        0.51841118575138
Cl          -0.50177030284699        1.84506282776124       -0.80051209572147
H            1.07329929138445       -1.06542011170041       -0.89937150737851
H            0.37799770272670        0.80626202949015       -0.48524824765454
H            0.68017341461045       -0.80881214686446        0.67614058562040
H            3.14537501889139       -0.07844416684487       -0.71311508699275
H            3.00559850442053       -1.22054741110846        0.63309734333853
H            3.88965852126531        0.69749310504551        1.60174535744761
H            1.93211455155544       -0.11784078818389        2.88860248670314
H            0.88718937539060        1.01442142161631        2.00826080692566
H            3.23477393122797        1.80510815493997        3.79159154217173
H            1.52921617635111        1.94482740817765        4.20269219423562
H            1.18319277303974        3.48712515551724        2.28714952114146
H            1.72930348517286        5.65186174894098        2.38645605182112
H            4.19720749704138        3.18104420768335        1.90907076711550
H            3.17317404322455        4.29681656425325        1.00182150770886
H            3.58153390164999        2.23732421770734       -0.29523610123234
H            1.86681273606484        2.39933481687570        0.09395531364478

          :  Hamiltonian                  GFN2-xTB          :
         :: total energy             -40.920185400046 Eh    ::
         :: gradient norm              0.000570882336 Eh/a0 ::
         :: HOMO-LUMO gap              4.655991804585 eV    ::
         :: SCC energy               -41.343810776729 Eh    ::
         :: -> dispersion             -0.023769149358 Eh    ::
         :: repulsion energy           0.423368775741 Eh    ::

    * Orbital Energies and Occupations

         #    Occupation            Energy/Eh            Energy/eV
      -------------------------------------------------------------
         1        2.0000           -1.0272152             -27.9519
       ...           ...                  ...                  ...
        24        2.0000           -0.4845491             -13.1853
        25        2.0000           -0.4813149             -13.0972
        26        2.0000           -0.4751811             -12.9303
        27        2.0000           -0.4695778             -12.7779
        28        2.0000           -0.4596459             -12.5076
        29        2.0000           -0.4503525             -12.2547
        30        2.0000           -0.4486962             -12.2096
        31        2.0000           -0.4354280             -11.8486
        32        2.0000           -0.4291501             -11.6778
        33        2.0000           -0.4111365             -11.1876
        34        2.0000           -0.4060054             -11.0480
        35        2.0000           -0.4042432             -11.0000
        36        2.0000           -0.4027731             -10.9600 (HOMO)
        37                         -0.2316686              -6.3040 (LUMO)
        38                         -0.0708047              -1.9267
        39                          0.0067506               0.1837
        40                          0.0308379               0.8391
        41                          0.0527958               1.4366
        42                          0.0561497               1.5279
        43                          0.0582370               1.5847
        44                          0.0608809               1.6567
        45                          0.0626909               1.7059
        46                          0.0636222               1.7312
        47                          0.0712937               1.9400
       ...                                ...                  ...
        69                          0.6540676              17.7981
      -------------------------------------------------------------
                  HL-Gap            0.1711046 Eh            4.6560 eV

     #   Z          covCN         q      C6AA      α(0)
     1   7 N        2.735    -0.297    27.638     7.808
     2   6 C        3.732     0.002    20.641     6.485
     3   6 C        3.855    -0.027    21.018     6.520
     4   6 C        3.808    -0.068    21.794     6.645
     5   6 C        3.809    -0.058    21.614     6.618
     6   6 C        3.856    -0.056    21.548     6.602
     7   6 C        2.693     0.353    20.999     7.500
     8   8 O        1.659    -0.376    20.388     6.095
     9   8 O        0.856    -0.369    21.069     6.154
    10   6 C        3.810    -0.053    21.520     6.603
    11   6 C        3.808    -0.076    21.948     6.669
    12  17 Cl       0.833    -0.502   115.754    16.459
    13   1 H        0.860     0.170     1.274     1.768
    14   1 H        0.938     0.330     0.626     1.237
    15   1 H        0.860     0.175     1.242     1.746
    16   1 H        0.924     0.051     2.304     2.374
    17   1 H        0.923     0.028     2.616     2.530
    18   1 H        0.924     0.043     2.413     2.429
    19   1 H        0.924     0.032     2.560     2.502
    20   1 H        0.924     0.052     2.294     2.368
    21   1 H        0.924     0.054     2.269     2.356
    22   1 H        0.924     0.043     2.409     2.427
    23   1 H        0.924     0.048     2.339     2.392
    24   1 H        0.805     0.320     0.663     1.279
    25   1 H        0.924     0.043     2.407     2.426
    26   1 H        0.924     0.031     2.568     2.506
    27   1 H        0.924     0.037     2.487     2.466
    28   1 H        0.925     0.069     2.095     2.263

Wiberg/Mayer (AO) data.
largest (>0.10) Wiberg bond orders for each atom

     #   Z sym  total        # sym  WBO       # sym  WBO       # sym  WBO
 ---------------------------------------------------------------------------
     1   7 N    3.269 --     2 C    1.001    13 H    0.958    15 H    0.954
                            14 H    0.237
     2   6 C    3.972 --     1 N    1.001     3 C    0.991    16 H    0.974
                            17 H    0.974
     3   6 C    3.993 --    11 C    0.998     4 C    0.997     2 C    0.991
                            18 H    0.965
     4   6 C    3.997 --     5 C    1.007     3 C    0.997    19 H    0.976
                            20 H    0.972
     5   6 C    3.994 --     4 C    1.007     6 C    0.997    22 H    0.976
                            21 H    0.974
     6   6 C    3.995 --     5 C    0.997    10 C    0.973     7 C    0.958
                            23 H    0.955
     7   6 C    3.912 --     9 O    1.799     8 O    1.113     6 C    0.958
     8   8 O    2.196 --     7 C    1.113    24 H    0.874     9 O    0.162
     9   8 O    2.073 --     7 C    1.799     8 O    0.162
    10   6 C    3.995 --    11 C    1.005    25 H    0.976    26 H    0.975
                             6 C    0.973
    11   6 C    3.993 --    10 C    1.005     3 C    0.998    27 H    0.974
                            28 H    0.966
    12  17 Cl   0.756 --    14 H    0.647
    13   1 H    0.971 --     1 N    0.958
    14   1 H    0.891 --    12 Cl   0.647     1 N    0.237
    15   1 H    0.969 --     1 N    0.954
    16   1 H    0.997 --     2 C    0.974
    17   1 H    0.999 --     2 C    0.974
    18   1 H    0.998 --     3 C    0.965
    19   1 H    0.999 --     4 C    0.976
    20   1 H    0.997 --     4 C    0.972
    21   1 H    0.997 --     5 C    0.974
    22   1 H    0.998 --     5 C    0.976
    23   1 H    0.998 --     6 C    0.955
    24   1 H    0.897 --     8 O    0.874
    25   1 H    0.998 --    10 C    0.976
    26   1 H    0.999 --    10 C    0.975
    27   1 H    0.998 --    11 C    0.974
    28   1 H    0.995 --    11 C    0.966
 ---------------------------------------------------------------------------

molecular dipole:
                 x           y           z       tot (Debye)
 q only:        0.598      -1.894      -0.857
   full:        0.129      -1.982      -1.322       6.064

           -------------------------------------------------
          | TOTAL ENERGY              -40.920185400046 Eh   |
          | GRADIENT NORM               0.000570882336 Eh/α |
          | HOMO-LUMO GAP               4.655991804585 eV   |
           -------------------------------------------------

 * finished run on 2023/01/23 at 13:46:20.330
