   * xtb version 6.5.1 (fef0646) compiled by 'conda@b96dff2e9fd6' on 2023-01-04
          program call               : xtb init.xyz --opt -c 1 -u 0 -P 16 --alpb water

   ID    Z sym.   atoms
    1    7 N      1
    2    6 C      2-9
    3    1 H      10-27

      * Solvation model:               ALPB
        Solvent                        water
        Solvent mass                       1.8000E+01 g/mol
          :  Hamiltonian                  GFN2-xTB          :
 * total energy  :   -28.9295451 Eh     change       -0.2161364E-09 Eh
 * total energy  :   -28.9310938 Eh     change       -0.1548736E-02 Eh
 * total energy  :   -28.9314563 Eh     change       -0.3624574E-03 Eh
 * total energy  :   -28.9315824 Eh     change       -0.1260777E-03 Eh
 * total energy  :   -28.9316673 Eh     change       -0.8497921E-04 Eh
 * total energy  :   -28.9317176 Eh     change       -0.5022100E-04 Eh
 * total energy  :   -28.9317682 Eh     change       -0.5064019E-04 Eh
 * total energy  :   -28.9318090 Eh     change       -0.4077393E-04 Eh
 * total energy  :   -28.9318502 Eh     change       -0.4127164E-04 Eh
 * total energy  :   -28.9318804 Eh     change       -0.3012103E-04 Eh
 * total energy  :   -28.9318977 Eh     change       -0.1730355E-04 Eh
 * total energy  :   -28.9319083 Eh     change       -0.1059301E-04 Eh
 * total energy  :   -28.9319153 Eh     change       -0.7021301E-05 Eh
 * total energy  :   -28.9319200 Eh     change       -0.4702366E-05 Eh
   *** GEOMETRY OPTIMIZATION CONVERGED AFTER 14 ITERATIONS ***

 final structure:
================
27
 xtb: 6.5.1 (fef0646)
N            0.94689711721716        2.11940180585741        0.16140627015990
C            2.42815488470802        2.11810760033149        0.25254526932367
C            3.01092280478076        1.07407450371770       -0.69337602034301
C            4.54460545023147        1.07947618065108       -0.71899400856198
C            5.03994262705507        0.16882184674768       -1.84707267589595
C            6.56398748262819        0.14259626654541       -1.91126146127248
C            7.14570745542172       -0.32446853215999       -0.58074576082188
C            6.66838778670662        0.58607442928685        0.54575040015427
C            5.14325971755424        0.61315277666921        0.61076283612907
H            0.54248532583007        2.81207388373222        0.80147704726609
H            0.57922580404820        1.19179399371807        0.40410685201024
H            0.65184437707571        2.34097211357457       -0.79675950798215
H            2.71604716619513        1.89946439050572        1.27934093509581
H            2.80483286187798        3.10585232860707       -0.01218119597269
H            2.66202735334145        1.26795109889738       -1.70907827949657
H            2.67996503649284        0.07580378745846       -0.40407000807064
H            4.89906831629463        2.09571534328529       -0.92132857819247
H            4.64601121435606        0.51250813467810       -2.80581768635345
H            4.67623347043402       -0.84757439719657       -1.67940642591624
H            6.94019087002386        1.14344239822144       -2.13702756347952
H            6.89043399303038       -0.52203224077468       -2.71420890279843
H            8.23698022380436       -0.32318139679171       -0.62756341890773
H            6.82462602563155       -1.35017101207343       -0.38297725907422
H            7.04608487129434        1.59679294193968        0.37268326010802
H            7.07412597541964        0.23981372340873        1.49882506894683
H            4.84581429927931        1.27842797152268        1.42149342086451
H            4.78224748926724       -0.39195994035975        0.83902739308108

          :  Hamiltonian                  GFN2-xTB          :
         :: total energy             -28.931919984754 Eh    ::
         :: gradient norm              0.000232817974 Eh/a0 ::
         :: HOMO-LUMO gap              9.644952571351 eV    ::
         :: SCC energy               -29.348257461794 Eh    ::
         :: -> dispersion             -0.017909569385 Eh    ::
         :: -> Gsolv                  -0.118100158760 Eh    ::
         :: repulsion energy           0.416280807763 Eh    ::

    * Orbital Energies and Occupations

         #    Occupation            Energy/Eh            Energy/eV
      -------------------------------------------------------------
         1        2.0000           -0.6919737             -18.8296
       ...           ...                  ...                  ...
        15        2.0000           -0.4960229             -13.4975
        16        2.0000           -0.4910666             -13.3626
        17        2.0000           -0.4906642             -13.3517
        18        2.0000           -0.4795052             -13.0480
        19        2.0000           -0.4620528             -12.5731
        20        2.0000           -0.4602179             -12.5232
        21        2.0000           -0.4578510             -12.4588
        22        2.0000           -0.4434895             -12.0680
        23        2.0000           -0.4330887             -11.7849
        24        2.0000           -0.4300534             -11.7023
        25        2.0000           -0.4172398             -11.3537
        26        2.0000           -0.4117046             -11.2031
        27        2.0000           -0.4066813             -11.0664 (HOMO)
        28                         -0.0522358              -1.4214 (LUMO)
        29                          0.0443773               1.2076
        30                          0.0703880               1.9154
        31                          0.0720442               1.9604
        32                          0.0904885               2.4623
        33                          0.1003504               2.7307
        34                          0.1125175               3.0618
        35                          0.1145437               3.1169
        36                          0.1218174               3.3148
        37                          0.1287956               3.5047
        38                          0.1357213               3.6932
       ...                                ...                  ...
        54                          0.3174506               8.6383
      -------------------------------------------------------------
                  HL-Gap            0.3544455 Eh            9.6450 eV

     #   Z          covCN         q      C6AA      α(0)
     1   7 N        3.485    -0.162    24.502     7.352
     2   6 C        3.731    -0.036    21.320     6.591
     3   6 C        3.806    -0.092    22.244     6.714
     4   6 C        3.854    -0.023    20.951     6.510
     5   6 C        3.809    -0.068    21.796     6.646
     6   6 C        3.805    -0.059    21.638     6.622
     7   6 C        3.805    -0.059    21.631     6.621
     8   6 C        3.805    -0.061    21.663     6.626
     9   6 C        3.807    -0.073    21.884     6.659
    10   1 H        0.859     0.316     0.667     1.280
    11   1 H        0.859     0.309     0.687     1.299
    12   1 H        0.859     0.308     0.689     1.301
    13   1 H        0.925     0.106     1.736     2.060
    14   1 H        0.925     0.107     1.721     2.052
    15   1 H        0.924     0.068     2.105     2.269
    16   1 H        0.924     0.067     2.124     2.279
    17   1 H        0.924     0.042     2.419     2.432
    18   1 H        0.924     0.035     2.513     2.479
    19   1 H        0.924     0.039     2.466     2.456
    20   1 H        0.924     0.030     2.592     2.518
    21   1 H        0.924     0.021     2.725     2.581
    22   1 H        0.924     0.016     2.801     2.617
    23   1 H        0.924     0.030     2.587     2.515
    24   1 H        0.924     0.031     2.578     2.511
    25   1 H        0.924     0.024     2.676     2.558
    26   1 H        0.925     0.044     2.398     2.422
    27   1 H        0.924     0.042     2.416     2.431

Wiberg/Mayer (AO) data.
largest (>0.10) Wiberg bond orders for each atom

     #   Z sym  total        # sym  WBO       # sym  WBO       # sym  WBO
 ---------------------------------------------------------------------------
     1   7 N    3.653 --     2 C    0.966    12 H    0.890    11 H    0.890
                            10 H    0.887
     2   6 C    3.927 --     3 C    1.011    14 H    0.966     1 N    0.966
                            13 H    0.965
     3   6 C    3.990 --     2 C    1.011     4 C    0.993    16 H    0.972
                            15 H    0.970
     4   6 C    3.995 --     9 C    0.998     5 C    0.996     3 C    0.993
                            17 H    0.966
     5   6 C    3.996 --     6 C    1.008     4 C    0.996    19 H    0.976
                            18 H    0.976
     6   6 C    3.997 --     7 C    1.009     5 C    1.008    21 H    0.978
                            20 H    0.978
     7   6 C    3.998 --     8 C    1.009     6 C    1.009    22 H    0.978
                            23 H    0.977
     8   6 C    3.997 --     7 C    1.009     9 C    1.007    25 H    0.978
                            24 H    0.978
     9   6 C    3.996 --     8 C    1.007     4 C    0.998    27 H    0.976
                            26 H    0.973
    10   1 H    0.900 --     1 N    0.887
    11   1 H    0.905 --     1 N    0.890
    12   1 H    0.905 --     1 N    0.890
    13   1 H    0.989 --     2 C    0.965
    14   1 H    0.989 --     2 C    0.966
    15   1 H    0.995 --     3 C    0.970
    16   1 H    0.996 --     3 C    0.972
    17   1 H    0.998 --     4 C    0.966
    18   1 H    0.999 --     5 C    0.976
    19   1 H    0.999 --     5 C    0.976
    20   1 H    0.999 --     6 C    0.978
    21   1 H    0.999 --     6 C    0.978
    22   1 H    0.999 --     7 C    0.978
    23   1 H    0.999 --     7 C    0.977
    24   1 H    0.999 --     8 C    0.978
    25   1 H    0.999 --     8 C    0.978
    26   1 H    0.998 --     9 C    0.973
    27   1 H    0.998 --     9 C    0.976
 ---------------------------------------------------------------------------

molecular dipole:
                 x           y           z       tot (Debye)
 q only:        1.841       4.012       0.312
   full:        1.898       3.956       0.277      11.175

           -------------------------------------------------
          | TOTAL ENERGY              -28.931919984754 Eh   |
          | GRADIENT NORM               0.000232817974 Eh/α |
          | HOMO-LUMO GAP               9.644952571351 eV   |
           -------------------------------------------------

 * finished run on 2023/01/24 at 14:57:46.353
