   * xtb version 6.5.1 (fef0646) compiled by 'conda@b96dff2e9fd6' on 2023-01-04
          program call               : xtb init.xyz --opt -c 1 -u 0 -P 16 --alpb water

   ID    Z sym.   atoms
    1    7 N      1
    2    6 C      2-6
    3    1 H      7-18

      * Solvation model:               ALPB
        Solvent                        water
        Solvent mass                       1.8000E+01 g/mol
          :  Hamiltonian                  GFN2-xTB          :
 * total energy  :   -19.4323182 Eh     change       -0.1158540E-10 Eh
 * total energy  :   -19.4331322 Eh     change       -0.8140062E-03 Eh
 * total energy  :   -19.4332303 Eh     change       -0.9810032E-04 Eh
 * total energy  :   -19.4332448 Eh     change       -0.1453986E-04 Eh
 * total energy  :   -19.4332478 Eh     change       -0.2961861E-05 Eh
   *** GEOMETRY OPTIMIZATION CONVERGED AFTER 5 ITERATIONS ***

 final structure:
================
18
 xtb: 6.5.1 (fef0646)
N            1.89736690884828       -0.00527115153873        0.47939089285253
C            0.78664342029741        0.09324976373651       -0.50983732160627
C           -0.07376407750177       -1.17451510738042       -0.45532611022805
C           -1.22012354039134       -0.81913427348378        0.49066897581935
C           -1.53084253127382        0.62547646065868        0.10579813472756
C           -0.15145728515152        1.25505660305951       -0.13351157835084
H            2.52712903928614       -0.77974595913944        0.23980576544590
H            1.50922904710290       -0.17686230237015        1.41492716624206
H            2.44044074566035        0.86561906470478        0.50291645895181
H            1.22881553212672        0.23302695582564       -1.49604476997687
H            0.48322066894778       -2.05072726127319       -0.13225255896525
H           -0.47921338546082       -1.38224047330010       -1.44443903649385
H           -0.90650007926329       -0.87646358652135        1.53331196405270
H           -2.07997527187134       -1.47367129255779        0.36639025115808
H           -2.09808304619881        1.15193021289150        0.87055871408460
H           -2.11752004761986        0.63902880866282       -0.81318424061491
H            0.19007237031110        1.74051013542424        0.77928009077834
H           -0.19579846784812        2.01126340260126       -0.91320279787691

          :  Hamiltonian                  GFN2-xTB          :
         :: total energy             -19.433247787959 Eh    ::
         :: gradient norm              0.000469434481 Eh/a0 ::
         :: HOMO-LUMO gap             10.170785140080 eV    ::
         :: SCC energy               -19.710238724610 Eh    ::
         :: -> dispersion             -0.009743504210 Eh    ::
         :: -> Gsolv                  -0.111451825761 Eh    ::
         :: repulsion energy           0.276960779477 Eh    ::

    * Orbital Energies and Occupations

         #    Occupation            Energy/Eh            Energy/eV
      -------------------------------------------------------------
         1        2.0000           -0.6946883             -18.9034
       ...           ...                  ...                  ...
         6        2.0000           -0.5849054             -15.9161
         7        2.0000           -0.5818120             -15.8319
         8        2.0000           -0.5533084             -15.0563
         9        2.0000           -0.5444409             -14.8150
        10        2.0000           -0.5252965             -14.2940
        11        2.0000           -0.5121716             -13.9369
        12        2.0000           -0.4911484             -13.3648
        13        2.0000           -0.4653854             -12.6638
        14        2.0000           -0.4583119             -12.4713
        15        2.0000           -0.4476253             -12.1805
        16        2.0000           -0.4453837             -12.1195
        17        2.0000           -0.4413764             -12.0105
        18        2.0000           -0.4249389             -11.5632 (HOMO)
        19                         -0.0511694              -1.3924 (LUMO)
        20                          0.0329012               0.8953
        21                          0.0419675               1.1420
        22                          0.0510179               1.3883
        23                          0.0947881               2.5793
        24                          0.1130335               3.0758
        25                          0.1265896               3.4447
        26                          0.1336900               3.6379
        27                          0.1470614               4.0017
        28                          0.1640767               4.4648
        29                          0.1810265               4.9260
       ...                                ...                  ...
        36                          0.3306692               8.9980
      -------------------------------------------------------------
                  HL-Gap            0.3737695 Eh           10.1708 eV

     #   Z          covCN         q      C6AA      α(0)
     1   7 N        3.485    -0.168    24.625     7.370
     2   6 C        3.797     0.023    20.183     6.397
     3   6 C        3.829    -0.088    22.157     6.698
     4   6 C        3.825    -0.071    21.835     6.649
     5   6 C        3.827    -0.069    21.793     6.643
     6   6 C        3.821    -0.090    22.193     6.704
     7   1 H        0.859     0.310     0.685     1.296
     8   1 H        0.859     0.304     0.701     1.312
     9   1 H        0.859     0.310     0.684     1.295
    10   1 H        0.925     0.099     1.795     2.095
    11   1 H        0.925     0.072     2.061     2.245
    12   1 H        0.925     0.066     2.135     2.285
    13   1 H        0.924     0.051     2.305     2.374
    14   1 H        0.925     0.036     2.505     2.475
    15   1 H        0.925     0.039     2.457     2.451
    16   1 H        0.924     0.037     2.493     2.469
    17   1 H        0.925     0.076     2.024     2.225
    18   1 H        0.925     0.062     2.173     2.305

Wiberg/Mayer (AO) data.
largest (>0.10) Wiberg bond orders for each atom

     #   Z sym  total        # sym  WBO       # sym  WBO       # sym  WBO
 ---------------------------------------------------------------------------
     1   7 N    3.652 --     2 C    0.949     8 H    0.890     9 H    0.888
                             7 H    0.888
     2   6 C    3.933 --     3 C    0.997     6 C    0.994    10 H    0.964
                             1 N    0.949
     3   6 C    3.989 --     4 C    1.007     2 C    0.997    12 H    0.973
                            11 H    0.971
     4   6 C    3.996 --     5 C    1.008     3 C    1.007    14 H    0.979
                            13 H    0.977
     5   6 C    3.996 --     4 C    1.008     6 C    1.004    16 H    0.981
                            15 H    0.979
     6   6 C    3.990 --     5 C    1.004     2 C    0.994    18 H    0.978
                            17 H    0.971
     7   1 H    0.904 --     1 N    0.888
     8   1 H    0.908 --     1 N    0.890
     9   1 H    0.904 --     1 N    0.888
    10   1 H    0.990 --     2 C    0.964
    11   1 H    0.995 --     3 C    0.971
    12   1 H    0.996 --     3 C    0.973
    13   1 H    0.997 --     4 C    0.977
    14   1 H    0.999 --     4 C    0.979
    15   1 H    0.998 --     5 C    0.979
    16   1 H    0.999 --     5 C    0.981
    17   1 H    0.994 --     6 C    0.971
    18   1 H    0.996 --     6 C    0.978
 ---------------------------------------------------------------------------

molecular dipole:
                 x           y           z       tot (Debye)
 q only:        3.318      -0.010       0.801
   full:        3.356      -0.013       0.853       8.801

           -------------------------------------------------
          | TOTAL ENERGY              -19.433247787959 Eh   |
          | GRADIENT NORM               0.000469434481 Eh/α |
          | HOMO-LUMO GAP              10.170785140080 eV   |
           -------------------------------------------------

 * finished run on 2023/01/24 at 14:55:53.229
