   * xtb version 6.5.1 (fef0646) compiled by 'conda@b96dff2e9fd6' on 2023-01-04
          program call               : xtb init.xyz --opt -c 1 -u 0 -P 16 --alpb water

   ID    Z sym.   atoms
    1    7 N      1
    2    6 C      2-7
    3   16 S      8
    4    1 H      9-18

      * Solvation model:               ALPB
        Solvent                        water
        Solvent mass                       1.8000E+01 g/mol
          :  Hamiltonian                  GFN2-xTB          :
 * total energy  :   -23.7670302 Eh     change       -0.1344560E-09 Eh
 * total energy  :   -23.7692577 Eh     change       -0.2227537E-02 Eh
 * total energy  :   -23.7697177 Eh     change       -0.4600220E-03 Eh
 * total energy  :   -23.7698943 Eh     change       -0.1765762E-03 Eh
 * total energy  :   -23.7700123 Eh     change       -0.1180104E-03 Eh
 * total energy  :   -23.7700978 Eh     change       -0.8545741E-04 Eh
 * total energy  :   -23.7701867 Eh     change       -0.8895001E-04 Eh
 * total energy  :   -23.7702999 Eh     change       -0.1131932E-03 Eh
 * total energy  :   -23.7704391 Eh     change       -0.1391950E-03 Eh
 * total energy  :   -23.7705623 Eh     change       -0.1231765E-03 Eh
 * total energy  :   -23.7708892 Eh     change       -0.4125400E-04 Eh
 * total energy  :   -23.7709124 Eh     change       -0.2323820E-04 Eh
 * total energy  :   -23.7709331 Eh     change       -0.2070909E-04 Eh
 * total energy  :   -23.7709518 Eh     change       -0.1866897E-04 Eh
 * total energy  :   -23.7709661 Eh     change       -0.1435768E-04 Eh
 * total energy  :   -23.7709771 Eh     change       -0.1099492E-04 Eh
 * total energy  :   -23.7709862 Eh     change       -0.9026736E-05 Eh
 * total energy  :   -23.7709930 Eh     change       -0.6818002E-05 Eh
 * total energy  :   -23.7709979 Eh     change       -0.4887825E-05 Eh
   *** GEOMETRY OPTIMIZATION CONVERGED AFTER 22 ITERATIONS ***

 final structure:
================
18
 xtb: 6.5.1 (fef0646)
N            2.64262644987649        0.80294211398379        1.20511109980314
C            2.48874328820636       -0.12881264143524        0.06654834174105
C            3.07265134698824        0.47797010491027       -1.21185786879203
C            4.56425996066743        0.52689828733252       -1.19068427205453
C            5.44773508026970       -0.20624605180863       -1.91658761788564
C            6.80044807989718        0.09689730511555       -1.62631022556197
C            6.93897870185913        1.05427827898994       -0.67741397637587
S            5.41955327220246        1.62067573923567       -0.13183844903017
H            2.30554945184148        0.37834353557222        2.07531159389582
H            2.12155365441909        1.66960561483515        1.03080366849705
H            3.63616037520606        1.05440153384073        1.31559594485543
H            1.43060069430762       -0.33636234759215       -0.08664799131231
H            3.00281940594469       -1.06249563981113        0.29264650752281
H            2.67602118796413        1.48336481547246       -1.35751084201668
H            2.76702544757130       -0.12965429980558       -2.06275894843978
H            5.15840471776000       -0.94149960155017       -2.64542598043667
H            7.63626833646180       -0.38185718592822       -2.10566835323230
H            7.83521054855706        1.47101043864299       -0.26195263117704

          :  Hamiltonian                  GFN2-xTB          :
         :: total energy             -23.770997867272 Eh    ::
         :: gradient norm              0.000472913574 Eh/a0 ::
         :: HOMO-LUMO gap              3.915923257865 eV    ::
         :: SCC energy               -24.123301846366 Eh    ::
         :: -> dispersion             -0.013356931370 Eh    ::
         :: -> Gsolv                  -0.118040578076 Eh    ::
         :: repulsion energy           0.352257923751 Eh    ::

    * Orbital Energies and Occupations

         #    Occupation            Energy/Eh            Energy/eV
      -------------------------------------------------------------
         1        2.0000           -0.7389785             -20.1086
       ...           ...                  ...                  ...
        10        2.0000           -0.5601690             -15.2430
        11        2.0000           -0.5439814             -14.8025
        12        2.0000           -0.5301419             -14.4259
        13        2.0000           -0.5021568             -13.6644
        14        2.0000           -0.4948387             -13.4652
        15        2.0000           -0.4867008             -13.2438
        16        2.0000           -0.4712728             -12.8240
        17        2.0000           -0.4687762             -12.7560
        18        2.0000           -0.4594778             -12.5030
        19        2.0000           -0.4494503             -12.2302
        20        2.0000           -0.4493449             -12.2273
        21        2.0000           -0.4012450             -10.9184
        22        2.0000           -0.3919574             -10.6657 (HOMO)
        23                         -0.2480498              -6.7498 (LUMO)
        24                         -0.2123536              -5.7784
        25                         -0.1712092              -4.6588
        26                         -0.1246914              -3.3930
        27                         -0.0403248              -1.0973
        28                         -0.0085633              -0.2330
        29                          0.0138674               0.3774
        30                          0.0213438               0.5808
        31                          0.0769333               2.0935
        32                          0.0851579               2.3173
        33                          0.1169151               3.1814
       ...                                ...                  ...
        47                          0.6999860              19.0476
      -------------------------------------------------------------
                  HL-Gap            0.1439075 Eh            3.9159 eV

     #   Z          covCN         q      C6AA      α(0)
     1   7 N        3.485    -0.162    24.500     7.352
     2   6 C        3.732    -0.040    21.389     6.601
     3   6 C        3.822    -0.094    22.279     6.717
     4   6 C        2.984     0.022    27.517     8.605
     5   6 C        3.122    -0.062    29.360     8.874
     6   6 C        3.133    -0.049    28.994     8.815
     7   6 C        2.934    -0.031    28.780     8.798
     8  16 S        2.355    -0.032   142.388    20.083
     9   1 H        0.859     0.320     0.655     1.268
    10   1 H        0.859     0.314     0.672     1.284
    11   1 H        0.859     0.302     0.707     1.317
    12   1 H        0.925     0.124     1.581     1.966
    13   1 H        0.925     0.114     1.660     2.015
    14   1 H        0.924     0.102     1.771     2.081
    15   1 H        0.925     0.091     1.874     2.141
    16   1 H        0.926     0.042     2.421     2.433
    17   1 H        0.926     0.018     2.770     2.603
    18   1 H        0.926     0.023     2.683     2.561

Wiberg/Mayer (AO) data.
largest (>0.10) Wiberg bond orders for each atom

     #   Z sym  total        # sym  WBO       # sym  WBO       # sym  WBO
 ---------------------------------------------------------------------------
     1   7 N    3.650 --     2 C    0.973    10 H    0.886     9 H    0.883
                            11 H    0.875
     2   6 C    3.929 --     3 C    0.995     1 N    0.973    13 H    0.965
                            12 H    0.962
     3   6 C    3.986 --     4 C    1.025     2 C    0.995    15 H    0.960
                            14 H    0.954
     4   6 C    3.946 --     5 C    1.615     8 S    1.145     3 C    1.025
                             7 C    0.117
     5   6 C    3.987 --     4 C    1.615     6 C    1.261    16 H    0.963
     6   6 C    3.990 --     7 C    1.648     5 C    1.261    17 H    0.965
     7   6 C    3.954 --     6 C    1.648     8 S    1.175    18 H    0.973
                             4 C    0.117
     8  16 S    2.602 --     7 C    1.175     4 C    1.145
     9   1 H    0.897 --     1 N    0.883
    10   1 H    0.901 --     1 N    0.886
    11   1 H    0.909 --     1 N    0.875
    12   1 H    0.984 --     2 C    0.962
    13   1 H    0.987 --     2 C    0.965
    14   1 H    0.990 --     3 C    0.954
    15   1 H    0.992 --     3 C    0.960
    16   1 H    0.998 --     5 C    0.963
    17   1 H    0.999 --     6 C    0.965
    18   1 H    0.999 --     7 C    0.973
 ---------------------------------------------------------------------------

molecular dipole:
                 x           y           z       tot (Debye)
 q only:        4.337       1.308       1.976
   full:        5.132       1.243       1.628      14.045

           -------------------------------------------------
          | TOTAL ENERGY              -23.770997867272 Eh   |
          | GRADIENT NORM               0.000472913574 Eh/α |
          | HOMO-LUMO GAP               3.915923257865 eV   |
           -------------------------------------------------

 * finished run on 2023/01/24 at 15:51:02.938
