   * xtb version 6.5.1 (fef0646) compiled by 'conda@b96dff2e9fd6' on 2023-01-04
          program call               : xtb init.xyz --opt -c 1 -u 0 -P 16

   ID    Z sym.   atoms
    1    7 N      1
    2    6 C      2-5
    3    8 O      6
    4    1 H      7-18

          :  Hamiltonian                  GFN2-xTB          :
 * total energy  :   -21.2239184 Eh     change       -0.4668266E-10 Eh
 * total energy  :   -21.2257764 Eh     change       -0.1858008E-02 Eh
 * total energy  :   -21.2260838 Eh     change       -0.3073531E-03 Eh
 * total energy  :   -21.2261291 Eh     change       -0.4525964E-04 Eh
 * total energy  :   -21.2261524 Eh     change       -0.2331515E-04 Eh
 * total energy  :   -21.2261627 Eh     change       -0.1029695E-04 Eh
 * total energy  :   -21.2261857 Eh     change       -0.2305279E-04 Eh
 * total energy  :   -21.2261983 Eh     change       -0.1261428E-04 Eh
 * total energy  :   -21.2262084 Eh     change       -0.1008714E-04 Eh
 * total energy  :   -21.2262148 Eh     change       -0.6390932E-05 Eh
 * total energy  :   -21.2262173 Eh     change       -0.2491268E-05 Eh
   *** GEOMETRY OPTIMIZATION CONVERGED AFTER 11 ITERATIONS ***

 final structure:
================
18
 xtb: 6.5.1 (fef0646)
N            0.98799067632432        0.11909085749610        0.06153837713804
C            2.48569238837612        0.11591871659729        0.01933179021432
C            3.02983126507074       -0.84832759382636        1.06034993194315
C            4.55998746624944       -0.85078867989375        1.09914739965161
C            5.02893201136141       -1.66521533303048        2.31524884678168
O            4.53324343188047       -1.12330216640214        3.51445777229758
H            0.58792474408344        0.75994798871631       -0.63522736227526
H            0.67168043559002        0.40341543696633        0.99882881195860
H            0.63524442505477       -0.83086273895122       -0.11713741455959
H            2.83741415778055        1.12992275670659        0.21450925678387
H            2.80423954487760       -0.17766941993455       -0.98189736259574
H            2.68564200622296       -1.86260623497312        0.85069837988827
H            2.68332242341281       -0.56828452143347        2.05783032327408
H            4.92800659077598        0.17293825684197        1.18972202759007
H            4.97196107344973       -1.28647580300689        0.19027558609254
H            6.12080539363421       -1.72862556333708        2.32098243663806
H            4.62591071672314       -2.67944287520494        2.25361858818734
H            5.10846124913227       -0.41196308333057        3.81490261099130

          :  Hamiltonian                  GFN2-xTB          :
         :: total energy             -21.226217307242 Eh    ::
         :: gradient norm              0.000286933369 Eh/a0 ::
         :: HOMO-LUMO gap              7.019042532957 eV    ::
         :: SCC energy               -21.480286075213 Eh    ::
         :: -> dispersion             -0.008138904498 Eh    ::
         :: repulsion energy           0.254054170302 Eh    ::

    * Orbital Energies and Occupations

         #    Occupation            Energy/Eh            Energy/eV
      -------------------------------------------------------------
         1        2.0000           -0.8974918             -24.4220
       ...           ...                  ...                  ...
         7        2.0000           -0.7446241             -20.2623
         8        2.0000           -0.7276722             -19.8010
         9        2.0000           -0.7090913             -19.2954
        10        2.0000           -0.6900674             -18.7777
        11        2.0000           -0.6736557             -18.3311
        12        2.0000           -0.6575232             -17.8921
        13        2.0000           -0.6480969             -17.6356
        14        2.0000           -0.6209797             -16.8977
        15        2.0000           -0.6140206             -16.7083
        16        2.0000           -0.6105159             -16.6130
        17        2.0000           -0.5772012             -15.7064
        18        2.0000           -0.5541073             -15.0780
        19        2.0000           -0.5252730             -14.2934 (HOMO)
        20                         -0.2673280              -7.2744 (LUMO)
        21                         -0.1636637              -4.4535
        22                         -0.1055969              -2.8734
        23                         -0.1039296              -2.8281
        24                         -0.0633854              -1.7248
        25                         -0.0553928              -1.5073
        26                         -0.0266151              -0.7242
        27                         -0.0143596              -0.3907
        28                         -0.0037027              -0.1008
        29                          0.0165677               0.4508
        30                          0.0299828               0.8159
       ...                                ...                  ...
        36                          0.1698054               4.6206
      -------------------------------------------------------------
                  HL-Gap            0.2579451 Eh            7.0190 eV

     #   Z          covCN         q      C6AA      α(0)
     1   7 N        3.483    -0.128    23.767     7.241
     2   6 C        3.731    -0.034    21.272     6.584
     3   6 C        3.805    -0.084    22.104     6.693
     4   6 C        3.800    -0.077    21.971     6.674
     5   6 C        3.677     0.072    19.595     6.342
     6   8 O        1.656    -0.437    21.579     6.271
     7   1 H        0.859     0.270     0.811     1.411
     8   1 H        0.859     0.274     0.795     1.397
     9   1 H        0.859     0.273     0.799     1.400
    10   1 H        0.924     0.106     1.728     2.056
    11   1 H        0.924     0.106     1.731     2.058
    12   1 H        0.924     0.065     2.141     2.288
    13   1 H        0.924     0.084     1.937     2.176
    14   1 H        0.924     0.054     2.276     2.359
    15   1 H        0.925     0.054     2.265     2.353
    16   1 H        0.924     0.043     2.413     2.429
    17   1 H        0.924     0.060     2.199     2.319
    18   1 H        0.805     0.299     0.725     1.337

Wiberg/Mayer (AO) data.
largest (>0.10) Wiberg bond orders for each atom

     #   Z sym  total        # sym  WBO       # sym  WBO       # sym  WBO
 ---------------------------------------------------------------------------
     1   7 N    3.675 --     2 C    0.921     7 H    0.913     9 H    0.909
                             8 H    0.909
     2   6 C    3.885 --     3 C    1.008    11 H    0.967    10 H    0.967
                             1 N    0.921
     3   6 C    3.978 --     2 C    1.008     4 C    0.998    12 H    0.972
                            13 H    0.966
     4   6 C    3.991 --     3 C    0.998     5 C    0.990    15 H    0.977
                            14 H    0.975
     5   6 C    3.957 --     6 O    1.008     4 C    0.990    16 H    0.972
                            17 H    0.970
     6   8 O    1.969 --     5 C    1.008    18 H    0.898
     7   1 H    0.927 --     1 N    0.913
     8   1 H    0.925 --     1 N    0.909
     9   1 H    0.925 --     1 N    0.909
    10   1 H    0.989 --     2 C    0.967
    11   1 H    0.989 --     2 C    0.967
    12   1 H    0.996 --     3 C    0.972
    13   1 H    0.993 --     3 C    0.966
    14   1 H    0.997 --     4 C    0.975
    15   1 H    0.997 --     4 C    0.977
    16   1 H    0.998 --     5 C    0.972
    17   1 H    0.996 --     5 C    0.970
    18   1 H    0.911 --     6 O    0.898
 ---------------------------------------------------------------------------

molecular dipole:
                 x           y           z       tot (Debye)
 q only:        3.173       0.173       0.216
   full:        3.083       0.338       0.086       7.886

           -------------------------------------------------
          | TOTAL ENERGY              -21.226217307242 Eh   |
          | GRADIENT NORM               0.000286933369 Eh/α |
          | HOMO-LUMO GAP               7.019042532957 eV   |
           -------------------------------------------------

 * finished run on 2023/01/23 at 14:22:32.780
