   * xtb version 6.5.1 (fef0646) compiled by 'conda@b96dff2e9fd6' on 2023-01-04
          program call               : xtb init.xyz --opt -c 1 -u 0 -P 16 --alpb water

   ID    Z sym.   atoms
    1    7 N      1
    2    6 C      2-7, 9, 10
    3    9 F      8
    4    1 H      11-21

      * Solvation model:               ALPB
        Solvent                        water
        Solvent mass                       1.8000E+01 g/mol
          :  Hamiltonian                  GFN2-xTB          :
 * total energy  :   -30.0608314 Eh     change       -0.2094467E-09 Eh
 * total energy  :   -30.0630202 Eh     change       -0.2188802E-02 Eh
 * total energy  :   -30.0633823 Eh     change       -0.3621346E-03 Eh
 * total energy  :   -30.0634508 Eh     change       -0.6848049E-04 Eh
 * total energy  :   -30.0634855 Eh     change       -0.3467301E-04 Eh
 * total energy  :   -30.0635195 Eh     change       -0.3397319E-04 Eh
 * total energy  :   -30.0635544 Eh     change       -0.3495290E-04 Eh
 * total energy  :   -30.0636062 Eh     change       -0.5178322E-04 Eh
 * total energy  :   -30.0636535 Eh     change       -0.4725720E-04 Eh
 * total energy  :   -30.0637185 Eh     change       -0.6502277E-04 Eh
 * total energy  :   -30.0637799 Eh     change       -0.6137124E-04 Eh
 * total energy  :   -30.0638152 Eh     change       -0.3531901E-04 Eh
 * total energy  :   -30.0638353 Eh     change       -0.2014582E-04 Eh
 * total energy  :   -30.0638521 Eh     change       -0.1674241E-04 Eh
 * total energy  :   -30.0638628 Eh     change       -0.1077892E-04 Eh
 * total energy  :   -30.0638727 Eh     change       -0.9862386E-05 Eh
 * total energy  :   -30.0638862 Eh     change       -0.1354251E-04 Eh
 * total energy  :   -30.0638923 Eh     change       -0.6016180E-05 Eh
 * total energy  :   -30.0638960 Eh     change       -0.3704823E-05 Eh
   *** GEOMETRY OPTIMIZATION CONVERGED AFTER 19 ITERATIONS ***

 final structure:
================
21
 xtb: 6.5.1 (fef0646)
N            2.70900532831270        3.73154597704695       -1.11091791715523
C            2.40331618634572        2.80034901721392        0.00254434372723
C            2.95391455974433        1.40863589520015       -0.30352777214543
C            4.46035349270167        1.38533350677284       -0.32849242032433
C            5.17812680775179        1.50513835532206        0.85784375542311
C            6.56067082435936        1.48005545024874        0.85709389852052
C            7.21541504185074        1.33092018652207       -0.35124839197664
F            8.58243053739215        1.29380085871535       -0.36070366031489
C            6.53721920839204        1.21307247215616       -1.54770701925916
C            5.15262729535186        1.24548174117847       -1.52567782196369
H            2.36753415192893        4.67609217777685       -0.90042999693404
H            2.26629496986571        3.40669967853063       -1.97895942297660
H            3.72393492376555        3.77132481637623       -1.26306638181315
H            1.32371284958298        2.74474453525020        0.13526746115811
H            2.85216233355953        3.18243410960966        0.91886889707899
H            2.56561289673198        1.05245289827645       -1.25696895201525
H            2.60553913533268        0.72565460078011        0.47081599852099
H            4.65785588811165        1.60253360354959        1.79790792332597
H            7.13136502887137        1.56194954333368        1.76807914195454
H            7.08824756260565        1.09227852300096       -2.46636240640908
H            4.61831097744146        1.13501205313889       -2.45664925642199

          :  Hamiltonian                  GFN2-xTB          :
         :: total energy             -30.063895967527 Eh    ::
         :: gradient norm              0.000613640861 Eh/a0 ::
         :: HOMO-LUMO gap              4.583619374010 eV    ::
         :: SCC energy               -30.508878551736 Eh    ::
         :: -> dispersion             -0.015063782623 Eh    ::
         :: -> Gsolv                  -0.129599130715 Eh    ::
         :: repulsion energy           0.444891671710 Eh    ::

    * Orbital Energies and Occupations

         #    Occupation            Energy/Eh            Energy/eV
      -------------------------------------------------------------
         1        2.0000           -0.8210132             -22.3409
       ...           ...                  ...                  ...
        15        2.0000           -0.5350434             -14.5593
        16        2.0000           -0.5202663             -14.1572
        17        2.0000           -0.5007432             -13.6259
        18        2.0000           -0.4996804             -13.5970
        19        2.0000           -0.4929420             -13.4136
        20        2.0000           -0.4897789             -13.3276
        21        2.0000           -0.4801505             -13.0656
        22        2.0000           -0.4719149             -12.8415
        23        2.0000           -0.4591972             -12.4954
        24        2.0000           -0.4459817             -12.1358
        25        2.0000           -0.4321282             -11.7588
        26        2.0000           -0.4214937             -11.4694
        27        2.0000           -0.4091622             -11.1339 (HOMO)
        28                         -0.2407173              -6.5503 (LUMO)
        29                         -0.2373182              -6.4578
        30                         -0.1103444              -3.0026
        31                         -0.0468687              -1.2754
        32                          0.0325689               0.8862
        33                          0.0591540               1.6097
        34                          0.0743643               2.0236
        35                          0.0990737               2.6959
        36                          0.1135029               3.0886
        37                          0.1347347               3.6663
        38                          0.1413728               3.8469
       ...                                ...                  ...
        51                          0.6448944              17.5485
      -------------------------------------------------------------
                  HL-Gap            0.1684449 Eh            4.5836 eV

     #   Z          covCN         q      C6AA      α(0)
     1   7 N        3.485    -0.156    24.361     7.331
     2   6 C        3.732    -0.039    21.359     6.597
     3   6 C        3.809    -0.098    22.364     6.732
     4   6 C        2.968     0.013    27.712     8.635
     5   6 C        2.930    -0.043    29.074     8.843
     6   6 C        2.914    -0.052    29.296     8.876
     7   6 C        2.789     0.165    24.425     8.095
     8   9 F        0.786    -0.294    12.256     4.135
     9   6 C        2.914    -0.054    29.338     8.882
    10   6 C        2.929    -0.049    29.208     8.863
    11   1 H        0.859     0.318     0.663     1.275
    12   1 H        0.859     0.311     0.681     1.292
    13   1 H        0.859     0.295     0.727     1.336
    14   1 H        0.925     0.121     1.602     1.979
    15   1 H        0.925     0.113     1.675     2.024
    16   1 H        0.925     0.089     1.887     2.148
    17   1 H        0.925     0.092     1.860     2.133
    18   1 H        0.926     0.073     2.047     2.238
    19   1 H        0.926     0.055     2.255     2.348
    20   1 H        0.926     0.058     2.217     2.328
    21   1 H        0.926     0.079     1.985     2.203

Wiberg/Mayer (AO) data.
largest (>0.10) Wiberg bond orders for each atom

     #   Z sym  total        # sym  WBO       # sym  WBO       # sym  WBO
 ---------------------------------------------------------------------------
     1   7 N    3.656 --     2 C    0.966    13 H    0.895    12 H    0.888
                            11 H    0.886
     2   6 C    3.925 --     3 C    1.000     1 N    0.966    15 H    0.964
                            14 H    0.963
     3   6 C    3.986 --     4 C    1.011     2 C    1.000    16 H    0.967
                            17 H    0.955
     4   6 C    3.987 --    10 C    1.416     5 C    1.405     3 C    1.011
     5   6 C    3.985 --     6 C    1.447     4 C    1.405    18 H    0.965
                             9 C    0.112
     6   6 C    3.988 --     5 C    1.447     7 C    1.398    19 H    0.967
                            10 C    0.110
     7   6 C    3.852 --     9 C    1.408     6 C    1.398     8 F    0.905
     8   9 F    1.020 --     7 C    0.905
     9   6 C    3.986 --    10 C    1.433     7 C    1.408    20 H    0.967
                             5 C    0.112
    10   6 C    3.984 --     9 C    1.433     4 C    1.416    21 H    0.963
                             6 C    0.110
    11   1 H    0.899 --     1 N    0.886
    12   1 H    0.903 --     1 N    0.888
    13   1 H    0.913 --     1 N    0.895
    14   1 H    0.985 --     2 C    0.963
    15   1 H    0.987 --     2 C    0.964
    16   1 H    0.992 --     3 C    0.967
    17   1 H    0.991 --     3 C    0.955
    18   1 H    0.995 --     5 C    0.965
    19   1 H    0.997 --     6 C    0.967
    20   1 H    0.996 --     9 C    0.967
    21   1 H    0.994 --    10 C    0.963
 ---------------------------------------------------------------------------

molecular dipole:
                 x           y           z       tot (Debye)
 q only:        3.361       6.863      -1.911
   full:        3.736       6.853      -1.959      20.454

           -------------------------------------------------
          | TOTAL ENERGY              -30.063895967527 Eh   |
          | GRADIENT NORM               0.000613640861 Eh/α |
          | HOMO-LUMO GAP               4.583619374010 eV   |
           -------------------------------------------------

 * finished run on 2023/01/24 at 15:47:28.723
