   * xtb version 6.5.1 (fef0646) compiled by 'conda@b96dff2e9fd6' on 2023-01-04
          program call               : xtb init.xyz --opt -c 1 -u 0 -P 16 --alpb water

   ID    Z sym.   atoms
    1    7 N      1
    2    6 C      2-8
    3    1 H      9-24

      * Solvation model:               ALPB
        Solvent                        water
        Solvent mass                       1.8000E+01 g/mol
          :  Hamiltonian                  GFN2-xTB          :
 * total energy  :   -25.7651869 Eh     change       -0.4413891E-10 Eh
 * total energy  :   -25.7666317 Eh     change       -0.1444808E-02 Eh
 * total energy  :   -25.7669625 Eh     change       -0.3307216E-03 Eh
 * total energy  :   -25.7670408 Eh     change       -0.7829825E-04 Eh
 * total energy  :   -25.7670812 Eh     change       -0.4048688E-04 Eh
 * total energy  :   -25.7670999 Eh     change       -0.1869048E-04 Eh
 * total energy  :   -25.7671139 Eh     change       -0.1396427E-04 Eh
 * total energy  :   -25.7671232 Eh     change       -0.9259480E-05 Eh
 * total energy  :   -25.7671311 Eh     change       -0.7965193E-05 Eh
 * total energy  :   -25.7671375 Eh     change       -0.6394124E-05 Eh
 * total energy  :   -25.7671429 Eh     change       -0.5386200E-05 Eh
 * total energy  :   -25.7671478 Eh     change       -0.4878893E-05 Eh
   *** GEOMETRY OPTIMIZATION CONVERGED AFTER 12 ITERATIONS ***

 final structure:
================
24
 xtb: 6.5.1 (fef0646)
N            3.31542110623527       -0.55526391321097       -1.18566209805452
C            2.52329264228468       -0.07644192606949       -0.02748486002926
C            2.92313681879449       -0.78444234194784        1.26877653848722
C            2.56668713983385       -2.27396820907857        1.24066062226937
C            2.94466304909485       -2.94196120332923        2.56169847451319
C            2.24008693076026       -2.26266574051090        3.73187088754235
C            2.58794038674838       -0.77720282472198        3.76608311497945
C            2.21204806324024       -0.10978667996798        2.44592075307705
H            3.04674995857693       -0.05198705913714       -2.03846483583577
H            3.15269098085238       -1.55800055879084       -1.32962621307492
H            4.31719701710839       -0.40904120438797       -1.01467462819196
H            1.46520941968633       -0.25224941577153       -0.22193455545969
H            2.67957836889467        0.99611581551056        0.08780610645523
H            4.00128362207178       -0.68333576572450        1.42683290311925
H            3.09281275934215       -2.79557201868898        0.44022544985098
H            1.49252957275683       -2.39010668502024        1.08454321157007
H            4.02519600413628       -2.87944544430390        2.71122516727458
H            2.67567550735088       -3.99981225127194        2.53366715669590
H            2.53388820258288       -2.73631474945262        4.67088038162305
H            1.15888924447903       -2.38124580695921        3.62788252118481
H            3.65918538936240       -0.66157274721598        3.94710034398711
H            2.06088216743018       -0.29158346983619        4.58967134010005
H            2.47675420954141        0.94798278767014        2.48917552435704
H            1.13119143883558       -0.18046858778277        2.30960669355931

          :  Hamiltonian                  GFN2-xTB          :
         :: total energy             -25.767147788077 Eh    ::
         :: gradient norm              0.000321176075 Eh/a0 ::
         :: HOMO-LUMO gap              9.828180323506 eV    ::
         :: SCC energy               -26.136763825062 Eh    ::
         :: -> dispersion             -0.015487022476 Eh    ::
         :: -> Gsolv                  -0.115866462248 Eh    ::
         :: repulsion energy           0.369526174273 Eh    ::

    * Orbital Energies and Occupations

         #    Occupation            Energy/Eh            Energy/eV
      -------------------------------------------------------------
         1        2.0000           -0.6923868             -18.8408
       ...           ...                  ...                  ...
        12        2.0000           -0.5192220             -14.1287
        13        2.0000           -0.5053628             -13.7516
        14        2.0000           -0.4975040             -13.5378
        15        2.0000           -0.4955525             -13.4847
        16        2.0000           -0.4791389             -13.0380
        17        2.0000           -0.4687801             -12.7562
        18        2.0000           -0.4652882             -12.6611
        19        2.0000           -0.4592776             -12.4976
        20        2.0000           -0.4380798             -11.9208
        21        2.0000           -0.4364166             -11.8755
        22        2.0000           -0.4206859             -11.4474
        23        2.0000           -0.4171524             -11.3513
        24        2.0000           -0.4123321             -11.2201 (HOMO)
        25                         -0.0511531              -1.3919 (LUMO)
        26                          0.0402554               1.0954
        27                          0.0567032               1.5430
        28                          0.0776077               2.1118
        29                          0.0928297               2.5260
        30                          0.1049799               2.8566
        31                          0.1109461               3.0190
        32                          0.1174007               3.1946
        33                          0.1194660               3.2508
        34                          0.1410226               3.8374
        35                          0.1478964               4.0245
       ...                                ...                  ...
        48                          0.3107088               8.4548
      -------------------------------------------------------------
                  HL-Gap            0.3611790 Eh            9.8282 eV

     #   Z          covCN         q      C6AA      α(0)
     1   7 N        3.484    -0.157    24.395     7.336
     2   6 C        3.735    -0.045    21.465     6.612
     3   6 C        3.855    -0.031    21.086     6.531
     4   6 C        3.807    -0.078    21.990     6.675
     5   6 C        3.805    -0.062    21.695     6.631
     6   6 C        3.805    -0.061    21.667     6.627
     7   6 C        3.805    -0.061    21.666     6.626
     8   6 C        3.810    -0.072    21.864     6.656
     9   1 H        0.859     0.318     0.662     1.274
    10   1 H        0.859     0.300     0.712     1.322
    11   1 H        0.859     0.309     0.687     1.299
    12   1 H        0.925     0.108     1.714     2.048
    13   1 H        0.925     0.109     1.709     2.044
    14   1 H        0.924     0.064     2.153     2.295
    15   1 H        0.924     0.052     2.289     2.366
    16   1 H        0.924     0.050     2.314     2.379
    17   1 H        0.924     0.036     2.503     2.474
    18   1 H        0.924     0.027     2.631     2.537
    19   1 H        0.924     0.017     2.782     2.608
    20   1 H        0.924     0.031     2.569     2.507
    21   1 H        0.924     0.035     2.523     2.484
    22   1 H        0.924     0.023     2.688     2.564
    23   1 H        0.924     0.043     2.414     2.430
    24   1 H        0.924     0.046     2.377     2.411

Wiberg/Mayer (AO) data.
largest (>0.10) Wiberg bond orders for each atom

     #   Z sym  total        # sym  WBO       # sym  WBO       # sym  WBO
 ---------------------------------------------------------------------------
     1   7 N    3.655 --     2 C    0.967    10 H    0.890    11 H    0.890
                             9 H    0.886
     2   6 C    3.926 --     3 C    0.998     1 N    0.967    13 H    0.965
                            12 H    0.965
     3   6 C    3.992 --     2 C    0.998     4 C    0.997     8 C    0.994
                            14 H    0.962
     4   6 C    3.995 --     5 C    1.007     3 C    0.997    16 H    0.975
                            15 H    0.971
     5   6 C    3.997 --     6 C    1.009     4 C    1.007    18 H    0.977
                            17 H    0.977
     6   6 C    3.997 --     5 C    1.009     7 C    1.009    19 H    0.978
                            20 H    0.977
     7   6 C    3.997 --     6 C    1.009     8 C    1.008    22 H    0.977
                            21 H    0.977
     8   6 C    3.996 --     7 C    1.008     3 C    0.994    24 H    0.976
                            23 H    0.975
     9   1 H    0.898 --     1 N    0.886
    10   1 H    0.910 --     1 N    0.890
    11   1 H    0.905 --     1 N    0.890
    12   1 H    0.988 --     2 C    0.965
    13   1 H    0.988 --     2 C    0.965
    14   1 H    0.996 --     3 C    0.962
    15   1 H    0.997 --     4 C    0.971
    16   1 H    0.997 --     4 C    0.975
    17   1 H    0.999 --     5 C    0.977
    18   1 H    0.999 --     5 C    0.977
    19   1 H    0.999 --     6 C    0.978
    20   1 H    0.999 --     6 C    0.977
    21   1 H    0.999 --     7 C    0.977
    22   1 H    0.999 --     7 C    0.977
    23   1 H    0.998 --     8 C    0.975
    24   1 H    0.998 --     8 C    0.976
 ---------------------------------------------------------------------------

molecular dipole:
                 x           y           z       tot (Debye)
 q only:        6.153      -0.945      -2.146
   full:        6.191      -1.037      -2.084      16.811

           -------------------------------------------------
          | TOTAL ENERGY              -25.767147788077 Eh   |
          | GRADIENT NORM               0.000321176075 Eh/α |
          | HOMO-LUMO GAP               9.828180323506 eV   |
           -------------------------------------------------

 * finished run on 2023/01/24 at 14:56:01.087
