   * xtb version 6.5.1 (fef0646) compiled by 'conda@b96dff2e9fd6' on 2023-01-04
          program call               : xtb init.xyz --opt -c 1 -u 0 -P 16 --input xtb.inp

   ID    Z sym.   atoms
    1    7 N      1
    2    6 C      2-5
    3    1 H      6-15

          :  Hamiltonian                  GFN2-xTB          :
 * total energy  :   -16.1057682 Eh     change       -0.7358381E-10 Eh
 * total energy  :   -16.1073980 Eh     change       -0.1629771E-02 Eh
 * total energy  :   -16.1075983 Eh     change       -0.2003596E-03 Eh
 * total energy  :   -16.1076359 Eh     change       -0.3760251E-04 Eh
 * total energy  :   -16.1076342 Eh     change        0.1673459E-05 Eh
 * total energy  :   -16.1076433 Eh     change       -0.9055676E-05 Eh
 * total energy  :   -16.1076448 Eh     change       -0.1476714E-05 Eh
   *** GEOMETRY OPTIMIZATION CONVERGED AFTER 7 ITERATIONS ***

 final structure:
================
15
 xtb: 6.5.1 (fef0646)
N            1.00948955204649        0.08080948439184       -0.00806945535628
C            2.50800904144550        0.08805930649663       -0.04791539476861
C            3.00800552165438        0.80506257208603       -1.29658895130085
C            4.51399499461950        0.80279548447719       -1.32161283264293
C            5.23104850280551        0.25842291404104       -2.28406108469661
H            0.65732839515029       -0.39968277489630        0.82954196099717
H            0.64258580550496       -0.39587586569374       -0.84282159534297
H            0.65580148205172        1.04716050059011       -0.01016217193486
H            2.86035284440406       -0.94436247772642       -0.04157376769411
H            2.87547563681395        0.58798659949500        0.84951485017532
H            2.65786065727642        1.84084408329042       -1.29461960140775
H            2.63465658183835        0.30977768457567       -2.19454760716381
H            4.98882444867309        1.29745678665261       -0.48687044994849
H            4.77891659930687       -0.23113706572416       -3.13064522627281
H            6.30534993640890        0.29091276794409       -2.27222867264241

          :  Hamiltonian                  GFN2-xTB          :
         :: total energy             -16.107644773077 Eh    ::
         :: gradient norm              0.000205037815 Eh/a0 ::
         :: HOMO-LUMO gap              5.519730084080 eV    ::
         :: SCC energy               -16.369216964794 Eh    ::
         :: -> dispersion             -0.006358426837 Eh    ::
         :: repulsion energy           0.261570547461 Eh    ::

    * Orbital Energies and Occupations

         #    Occupation            Energy/Eh            Energy/eV
      -------------------------------------------------------------
         1        2.0000           -0.9002429             -24.4969
       ...           ...                  ...                  ...
         3        2.0000           -0.8104282             -22.0529
         4        2.0000           -0.8061159             -21.9355
         5        2.0000           -0.7805167             -21.2389
         6        2.0000           -0.7406464             -20.1540
         7        2.0000           -0.7302580             -19.8713
         8        2.0000           -0.6935277             -18.8718
         9        2.0000           -0.6753466             -18.3771
        10        2.0000           -0.6597894             -17.9538
        11        2.0000           -0.6377940             -17.3553
        12        2.0000           -0.6183697             -16.8267
        13        2.0000           -0.5900150             -16.0551
        14        2.0000           -0.5604444             -15.2505
        15        2.0000           -0.5384815             -14.6528 (HOMO)
        16                         -0.3356351              -9.1331 (LUMO)
        17                         -0.2683125              -7.3012
        18                         -0.1629559              -4.4343
        19                         -0.1056761              -2.8756
        20                         -0.1033289              -2.8117
        21                         -0.0557013              -1.5157
        22                         -0.0248099              -0.6751
        23                         -0.0151300              -0.4117
        24                          0.0116654               0.3174
        25                          0.0298208               0.8115
        26                          0.0508941               1.3849
       ...                                ...                  ...
        30                          0.4956343              13.4869
      -------------------------------------------------------------
                  HL-Gap            0.2028463 Eh            5.5197 eV

     #   Z          covCN         q      C6AA      α(0)
     1   7 N        3.482    -0.128    23.758     7.239
     2   6 C        3.733    -0.031    21.225     6.576
     3   6 C        3.806    -0.080    22.022     6.681
     4   6 C        2.888    -0.038    28.951     8.821
     5   6 C        2.837    -0.082    30.039     8.982
     6   1 H        0.859     0.270     0.809     1.409
     7   1 H        0.859     0.273     0.800     1.402
     8   1 H        0.859     0.273     0.801     1.402
     9   1 H        0.924     0.108     1.715     2.048
    10   1 H        0.924     0.108     1.710     2.045
    11   1 H        0.924     0.068     2.112     2.273
    12   1 H        0.924     0.068     2.111     2.272
    13   1 H        0.926     0.055     2.264     2.353
    14   1 H        0.926     0.062     2.177     2.307
    15   1 H        0.926     0.075     2.027     2.227

Wiberg/Mayer (AO) data.
largest (>0.10) Wiberg bond orders for each atom

     #   Z sym  total        # sym  WBO       # sym  WBO       # sym  WBO
 ---------------------------------------------------------------------------
     1   7 N    3.675 --     2 C    0.919     6 H    0.912     7 H    0.910
                             8 H    0.910
     2   6 C    3.885 --     3 C    1.000     9 H    0.967    10 H    0.967
                             1 N    0.919
     3   6 C    3.980 --     4 C    1.002     2 C    1.000    12 H    0.970
                            11 H    0.962
     4   6 C    3.983 --     5 C    1.992     3 C    1.002    13 H    0.965
     5   6 C    3.986 --     4 C    1.992    14 H    0.972    15 H    0.972
     6   1 H    0.926 --     1 N    0.912
     7   1 H    0.926 --     1 N    0.910
     8   1 H    0.926 --     1 N    0.910
     9   1 H    0.988 --     2 C    0.967
    10   1 H    0.988 --     2 C    0.967
    11   1 H    0.995 --     3 C    0.962
    12   1 H    0.995 --     3 C    0.970
    13   1 H    0.997 --     4 C    0.965
    14   1 H    0.996 --     5 C    0.972
    15   1 H    0.994 --     5 C    0.972
 ---------------------------------------------------------------------------

molecular dipole:
                 x           y           z       tot (Debye)
 q only:        2.841       0.238      -0.386
   full:        2.525       0.221      -0.306       6.488

           -------------------------------------------------
          | TOTAL ENERGY              -16.107644773077 Eh   |
          | GRADIENT NORM               0.000205037815 Eh/α |
          | HOMO-LUMO GAP               5.519730084080 eV   |
           -------------------------------------------------

 * finished run on 2023/01/23 at 19:52:22.586
