   * xtb version 6.5.1 (fef0646) compiled by 'conda@b96dff2e9fd6' on 2023-01-04
          program call               : xtb init.xyz --opt -c 1 -u 0 -P 16

   ID    Z sym.   atoms
    1    7 N      1
    2    6 C      2-12
    3    1 H      13-24

          :  Hamiltonian                  GFN2-xTB          :
 * total energy  :   -32.1476848 Eh     change       -0.2437517E-09 Eh
 * total energy  :   -32.1514318 Eh     change       -0.3747018E-02 Eh
 * total energy  :   -32.1521141 Eh     change       -0.6823367E-03 Eh
 * total energy  :   -32.1521922 Eh     change       -0.7807818E-04 Eh
 * total energy  :   -32.1522280 Eh     change       -0.3583507E-04 Eh
 * total energy  :   -32.1522381 Eh     change       -0.1008437E-04 Eh
 * total energy  :   -32.1522500 Eh     change       -0.1187720E-04 Eh
 * total energy  :   -32.1522611 Eh     change       -0.1109349E-04 Eh
 * total energy  :   -32.1522730 Eh     change       -0.1190695E-04 Eh
 * total energy  :   -32.1522850 Eh     change       -0.1197074E-04 Eh
 * total energy  :   -32.1522931 Eh     change       -0.8107248E-05 Eh
 * total energy  :   -32.1522973 Eh     change       -0.4210283E-05 Eh
   *** GEOMETRY OPTIMIZATION CONVERGED AFTER 12 ITERATIONS ***

 final structure:
================
24
 xtb: 6.5.1 (fef0646)
N            1.12081714714158        0.34068941690797       -0.47612516566661
C            2.48596939190206       -0.08950650907672        0.01197033085104
C            2.85433602188085       -1.38830819471821       -0.64297776146727
C            2.39354340476336       -2.59808219971380       -0.08272207707313
C            2.70375965848960       -3.79099857398911       -0.67057533135159
C            3.60302009984432       -1.40623737278126       -1.79358849522029
C            3.93655684843256       -2.62133003751216       -2.42245152790307
C            3.47976531076658       -3.83983926272598       -1.84791273528335
C            3.82494891120812       -5.05785839632425       -2.46790778020857
C            4.58432324256124       -5.06770960691844       -3.60548063787735
C            5.02965539467980       -3.86383039150569       -4.17592323220097
C            4.71387940860044       -2.66539515881436       -3.59885406443798
H            0.81001530941373        1.21220484659077       -0.02923420176996
H            0.44312277466775       -0.40632735329748       -0.27319660246202
H            1.15144197804832        0.47429911041382       -1.49540238052435
H            2.43445884590712       -0.19706199088401        1.09609087381586
H            3.19866881083045        0.69614791216317       -0.23955892333709
H            1.81377333846743       -2.57530266385162        0.82895516587942
H            2.36312439994498       -4.71772252327100       -0.23478876705438
H            3.96819183398502       -0.48478647606072       -2.22594859951149
H            3.48118099275564       -5.98113180267166       -2.02638617566440
H            4.84505525559838       -6.00274630089695       -4.07604046062196
H            5.62554982766899       -3.89301431366848       -5.07498140536277
H            5.05916179244172       -1.73776215739389       -4.03106004554767

          :  Hamiltonian                  GFN2-xTB          :
         :: total energy             -32.152297294639 Eh    ::
         :: gradient norm              0.000696081200 Eh/a0 ::
         :: HOMO-LUMO gap              3.077697529895 eV    ::
         :: SCC energy               -32.745292055820 Eh    ::
         :: -> dispersion             -0.020860696794 Eh    ::
         :: repulsion energy           0.592970041398 Eh    ::

    * Orbital Energies and Occupations

         #    Occupation            Energy/Eh            Energy/eV
      -------------------------------------------------------------
         1        2.0000           -0.8848966             -24.0793
       ...           ...                  ...                  ...
        18        2.0000           -0.6113286             -16.6351
        19        2.0000           -0.6099796             -16.5984
        20        2.0000           -0.6054042             -16.4739
        21        2.0000           -0.5916953             -16.1008
        22        2.0000           -0.5827198             -15.8566
        23        2.0000           -0.5788026             -15.7500
        24        2.0000           -0.5703498             -15.5200
        25        2.0000           -0.5587916             -15.2055
        26        2.0000           -0.5445616             -14.8183
        27        2.0000           -0.5293225             -14.4036
        28        2.0000           -0.5243231             -14.2676
        29        2.0000           -0.5164138             -14.0523
        30        2.0000           -0.4940297             -13.4432 (HOMO)
        31                         -0.3809264             -10.3655 (LUMO)
        32                         -0.3532352              -9.6120
        33                         -0.3047622              -8.2930
        34                         -0.2759015              -7.5077
        35                         -0.2351904              -6.3999
        36                         -0.1736350              -4.7248
        37                         -0.1455682              -3.9611
        38                         -0.0859067              -2.3376
        39                         -0.0844956              -2.2992
        40                         -0.0429952              -1.1700
        41                         -0.0150852              -0.4105
       ...                                ...                  ...
        60                          0.5844287              15.9031
      -------------------------------------------------------------
                  HL-Gap            0.1131033 Eh            3.0777 eV

     #   Z          covCN         q      C6AA      α(0)
     1   7 N        3.482    -0.130    23.821     7.249
     2   6 C        3.735    -0.033    21.254     6.579
     3   6 C        2.968    -0.021    28.530     8.761
     4   6 C        2.917    -0.049    29.229     8.866
     5   6 C        2.917    -0.027    28.677     8.782
     6   6 C        2.921    -0.044    29.088     8.844
     7   6 C        2.986     0.018    27.601     8.618
     8   6 C        2.987     0.020    27.543     8.609
     9   6 C        2.917    -0.029    28.716     8.787
    10   6 C        2.916    -0.016    28.420     8.742
    11   6 C        2.916    -0.018    28.449     8.746
    12   6 C        2.917    -0.031    28.784     8.798
    13   1 H        0.859     0.265     0.828     1.425
    14   1 H        0.859     0.271     0.807     1.408
    15   1 H        0.859     0.269     0.813     1.413
    16   1 H        0.924     0.103     1.756     2.072
    17   1 H        0.925     0.102     1.770     2.081
    18   1 H        0.926     0.036     2.508     2.477
    19   1 H        0.926     0.058     2.218     2.329
    20   1 H        0.925     0.041     2.431     2.438
    21   1 H        0.926     0.054     2.275     2.359
    22   1 H        0.926     0.058     2.217     2.328
    23   1 H        0.926     0.057     2.234     2.337
    24   1 H        0.926     0.047     2.359     2.402

Wiberg/Mayer (AO) data.
largest (>0.10) Wiberg bond orders for each atom

     #   Z sym  total        # sym  WBO       # sym  WBO       # sym  WBO
 ---------------------------------------------------------------------------
     1   7 N    3.670 --    13 H    0.915    15 H    0.912    14 H    0.911
                             2 C    0.899
     2   6 C    3.881 --     3 C    1.007    17 H    0.967    16 H    0.966
                             1 N    0.899
     3   6 C    3.968 --     6 C    1.509     4 C    1.290     2 C    1.007
     4   6 C    3.990 --     5 C    1.559     3 C    1.290    18 H    0.968
     5   6 C    3.990 --     4 C    1.559     8 C    1.281    19 H    0.966
                             6 C    0.109
     6   6 C    3.991 --     3 C    1.509     7 C    1.292    20 H    0.965
                             5 C    0.109
     7   6 C    3.990 --     6 C    1.292    12 C    1.277     8 C    1.240
     8   6 C    3.990 --     9 C    1.284     5 C    1.281     7 C    1.240
     9   6 C    3.990 --    10 C    1.554     8 C    1.284    21 H    0.967
                            12 C    0.116
    10   6 C    3.986 --     9 C    1.554    11 C    1.319    22 H    0.969
    11   6 C    3.990 --    12 C    1.557    10 C    1.319    23 H    0.969
    12   6 C    3.989 --    11 C    1.557     7 C    1.277    24 H    0.967
                             9 C    0.116
    13   1 H    0.929 --     1 N    0.915
    14   1 H    0.927 --     1 N    0.911
    15   1 H    0.928 --     1 N    0.912
    16   1 H    0.989 --     2 C    0.966
    17   1 H    0.989 --     2 C    0.967
    18   1 H    0.998 --     4 C    0.968
    19   1 H    0.996 --     5 C    0.966
    20   1 H    0.998 --     6 C    0.965
    21   1 H    0.997 --     9 C    0.967
    22   1 H    0.996 --    10 C    0.969
    23   1 H    0.996 --    11 C    0.969
    24   1 H    0.997 --    12 C    0.967
 ---------------------------------------------------------------------------

molecular dipole:
                 x           y           z       tot (Debye)
 q only:        3.207      -0.828      -1.673
   full:        3.006      -0.652      -1.657       8.881

           -------------------------------------------------
          | TOTAL ENERGY              -32.152297294639 Eh   |
          | GRADIENT NORM               0.000696081200 Eh/α |
          | HOMO-LUMO GAP               3.077697529895 eV   |
           -------------------------------------------------

 * finished run on 2023/01/23 at 13:44:09.756
