   * xtb version 6.5.1 (fef0646) compiled by 'conda@b96dff2e9fd6' on 2023-01-04
          program call               : xtb init.xyz --opt -c 0 -u 0 -P 16

   ID    Z sym.   atoms
    1    7 N      1
    2    6 C      2-5
    3   53 I      6
    4   17 Cl     7
    5    1 H      8-18

          :  Hamiltonian                  GFN2-xTB          :
 * total energy  :   -25.4201037 Eh     change       -0.4074288E-09 Eh
 * total energy  :   -25.4205746 Eh     change       -0.4709200E-03 Eh
 * total energy  :   -25.4259536 Eh     change       -0.5379034E-02 Eh
 * total energy  :   -25.4297029 Eh     change       -0.3749247E-02 Eh
 * total energy  :   -25.4341139 Eh     change       -0.4411042E-02 Eh
 * total energy  :   -25.4423092 Eh     change       -0.8195235E-02 Eh
 * total energy  :   -25.4446942 Eh     change       -0.2385040E-02 Eh
 * total energy  :   -25.4464020 Eh     change       -0.1707794E-02 Eh
 * total energy  :   -25.4481411 Eh     change       -0.1739099E-02 Eh
 * total energy  :   -25.4503521 Eh     change       -0.2211027E-02 Eh
 * total energy  :   -25.4543187 Eh     change       -0.4227957E-04 Eh
 * total energy  :   -25.4543406 Eh     change       -0.2195542E-04 Eh
 * total energy  :   -25.4543557 Eh     change       -0.1502997E-04 Eh
 * total energy  :   -25.4543691 Eh     change       -0.1344209E-04 Eh
 * total energy  :   -25.4543809 Eh     change       -0.1179113E-04 Eh
 * total energy  :   -25.4543922 Eh     change       -0.1126249E-04 Eh
 * total energy  :   -25.4543994 Eh     change       -0.7239594E-05 Eh
 * total energy  :   -25.4544067 Eh     change       -0.7311348E-05 Eh
 * total energy  :   -25.4544114 Eh     change       -0.4653225E-05 Eh
   *** GEOMETRY OPTIMIZATION CONVERGED AFTER 34 ITERATIONS ***

 final structure:
================
18
 xtb: 6.5.1 (fef0646)
N            1.24212185694183        0.24785281224980        0.33271832082665
C            2.69466702979117        0.19658175179433        0.17865671469006
C            3.10202055158456        0.85963771566196       -1.13450248636440
C            4.60828881147954        0.75281542481162       -1.36841808480874
C            4.98671370815670        1.39252108224233       -2.68865245835797
I            7.11740511611497        1.29456025359903       -3.03873080539945
Cl          -0.02247923788593       -1.05379869312694       -1.98293619273453
H            0.94555558890023       -0.23001756126080        1.17598651222287
H            0.56174499171551       -0.45575649409429       -0.90248424374992
H            0.91591168681622        1.20813304546747        0.37029542281074
H            2.98484524256762       -0.85637915229116        0.16159706841086
H            3.21771528123192        0.68166498902548        1.01536742790141
H            2.80803687796469        1.91200454042299       -1.11512390595731
H            2.56292643727160        0.37596873491681       -1.94963162916787
H            4.89999471554626       -0.29959714537295       -1.37115878480039
H            5.14191349447895        1.24464019192054       -0.55117776990762
H            4.72459595513784        2.44750447081596       -2.71184532252737
H            4.51618189218617        0.88382403321806       -3.52599978308714

          :  Hamiltonian                  GFN2-xTB          :
         :: total energy             -25.454411360865 Eh    ::
         :: gradient norm              0.000466437946 Eh/a0 ::
         :: HOMO-LUMO gap              4.542369344671 eV    ::
         :: SCC energy               -25.685636265823 Eh    ::
         :: -> dispersion             -0.011997106362 Eh    ::
         :: repulsion energy           0.231223794566 Eh    ::

    * Orbital Energies and Occupations

         #    Occupation            Energy/Eh            Energy/eV
      -------------------------------------------------------------
         1        2.0000           -1.0264756             -27.9318
       ...           ...                  ...                  ...
        11        2.0000           -0.5347181             -14.5504
        12        2.0000           -0.5121744             -13.9370
        13        2.0000           -0.5059369             -13.7672
        14        2.0000           -0.5023766             -13.6704
        15        2.0000           -0.4812945             -13.0967
        16        2.0000           -0.4742920             -12.9061
        17        2.0000           -0.4658337             -12.6760
        18        2.0000           -0.4570298             -12.4364
        19        2.0000           -0.4099635             -11.1557
        20        2.0000           -0.4088947             -11.1266
        21        2.0000           -0.4074486             -11.0872
        22        2.0000           -0.4034399             -10.9782
        23        2.0000           -0.4033913             -10.9768 (HOMO)
        24                         -0.2364623              -6.4345 (LUMO)
        25                         -0.0658644              -1.7923
        26                         -0.0019859              -0.0540
        27                          0.0190366               0.5180
        28                          0.0204519               0.5565
        29                          0.0339183               0.9230
        30                          0.0420406               1.1440
        31                          0.0569310               1.5492
        32                          0.0575558               1.5662
        33                          0.0629692               1.7135
        34                          0.0632676               1.7216
       ...                                ...                  ...
        49                          0.3596378               9.7862
      -------------------------------------------------------------
                  HL-Gap            0.1669290 Eh            4.5424 eV

     #   Z          covCN         q      C6AA      α(0)
     1   7 N        2.681    -0.308    27.935     7.850
     2   6 C        3.732     0.009    20.524     6.466
     3   6 C        3.805    -0.074    21.910     6.664
     4   6 C        3.920    -0.056    21.515     6.592
     5   6 C        3.784     0.000    20.591     6.464
     6  53 I        1.088    -0.151   383.137    33.790
     7  17 Cl       0.838    -0.478   114.878    16.397
     8   1 H        0.860     0.168     1.284     1.775
     9   1 H        0.888     0.333     0.621     1.233
    10   1 H        0.860     0.167     1.290     1.779
    11   1 H        0.924     0.055     2.261     2.351
    12   1 H        0.923     0.027     2.627     2.535
    13   1 H        0.924     0.039     2.456     2.451
    14   1 H        0.924     0.065     2.137     2.286
    15   1 H        0.924     0.049     2.334     2.389
    16   1 H        0.924     0.045     2.389     2.417
    17   1 H        0.933     0.052     2.289     2.366
    18   1 H        0.933     0.057     2.236     2.338

Wiberg/Mayer (AO) data.
largest (>0.10) Wiberg bond orders for each atom

     #   Z sym  total        # sym  WBO       # sym  WBO       # sym  WBO
 ---------------------------------------------------------------------------
     1   7 N    3.226 --     2 C    1.007    10 H    0.958     8 H    0.958
                             9 H    0.195
     2   6 C    3.972 --     1 N    1.007     3 C    1.004    11 H    0.974
                            12 H    0.972
     3   6 C    3.993 --     2 C    1.004     4 C    0.997    13 H    0.976
                            14 H    0.972
     4   6 C    3.995 --     5 C    1.025     3 C    0.997    16 H    0.977
                            15 H    0.977
     5   6 C    3.964 --     4 C    1.025    17 H    0.983    18 H    0.983
                             6 I    0.957
     6  53 I    0.988 --     5 C    0.957
     7  17 Cl   0.775 --     9 H    0.689
     8   1 H    0.971 --     1 N    0.958
     9   1 H    0.889 --     7 Cl   0.689     1 N    0.195
    10   1 H    0.972 --     1 N    0.958
    11   1 H    0.997 --     2 C    0.974
    12   1 H    0.999 --     2 C    0.972
    13   1 H    0.998 --     3 C    0.976
    14   1 H    0.996 --     3 C    0.972
    15   1 H    0.998 --     4 C    0.977
    16   1 H    0.998 --     4 C    0.977
    17   1 H    0.997 --     5 C    0.983
    18   1 H    0.997 --     5 C    0.983
 ---------------------------------------------------------------------------

molecular dipole:
                 x           y           z       tot (Debye)
 q only:        0.180       0.815       1.613
   full:       -0.789       0.808       1.719       5.227

           -------------------------------------------------
          | TOTAL ENERGY              -25.454411360865 Eh   |
          | GRADIENT NORM               0.000466437946 Eh/α |
          | HOMO-LUMO GAP               4.542369344671 eV   |
           -------------------------------------------------

 * finished run on 2023/01/23 at 14:19:49.424
