   * xtb version 6.5.1 (fef0646) compiled by 'conda@b96dff2e9fd6' on 2023-01-04
          program call               : xtb init.xyz --opt -c 1 -u 0 -P 16 --alpb water

   ID    Z sym.   atoms
    1    7 N      1
    2    6 C      2-10
    3    1 H      11-22

      * Solvation model:               ALPB
        Solvent                        water
        Solvent mass                       1.8000E+01 g/mol
          :  Hamiltonian                  GFN2-xTB          :
 * total energy  :   -27.9394953 Eh     change       -0.2953016E-09 Eh
 * total energy  :   -27.9418969 Eh     change       -0.2401604E-02 Eh
 * total energy  :   -27.9422546 Eh     change       -0.3577188E-03 Eh
 * total energy  :   -27.9423674 Eh     change       -0.1128336E-03 Eh
 * total energy  :   -27.9424347 Eh     change       -0.6726535E-04 Eh
 * total energy  :   -27.9424663 Eh     change       -0.3161068E-04 Eh
 * total energy  :   -27.9425143 Eh     change       -0.4801655E-04 Eh
 * total energy  :   -27.9425458 Eh     change       -0.3148511E-04 Eh
 * total energy  :   -27.9425914 Eh     change       -0.4561113E-04 Eh
 * total energy  :   -27.9426305 Eh     change       -0.3908901E-04 Eh
 * total energy  :   -27.9426444 Eh     change       -0.1392978E-04 Eh
 * total energy  :   -27.9426555 Eh     change       -0.1109685E-04 Eh
 * total energy  :   -27.9426644 Eh     change       -0.8894659E-05 Eh
 * total energy  :   -27.9426708 Eh     change       -0.6421544E-05 Eh
 * total energy  :   -27.9426765 Eh     change       -0.5643010E-05 Eh
 * total energy  :   -27.9426792 Eh     change       -0.2681853E-05 Eh
 * total energy  :   -27.9426812 Eh     change       -0.2023101E-05 Eh
   *** GEOMETRY OPTIMIZATION CONVERGED AFTER 17 ITERATIONS ***

 final structure:
================
22
 xtb: 6.5.1 (fef0646)
N            2.17709405384493        0.46629544523892       -1.31383809260464
C            2.43046605979079       -0.07451337817078        0.05128080342698
C            2.98477941157644       -1.47098501456363       -0.03738773993161
C            4.35752330099617       -1.68711409693410       -0.07473009440667
C            4.86649528240752       -2.96570906015765       -0.18520468538151
C            4.01498498174787       -4.06883056688235       -0.26609546334562
C            4.50070338609326       -5.43880229146932       -0.38262514628037
C            5.75549586412781       -5.84636462524633       -0.23396151452797
C            2.63728762224913       -3.84176462500461       -0.23435733884308
C            2.12908642925225       -2.56341296847909       -0.11887768969477
H            1.78264291247854        1.41254173893167       -1.26070633942258
H            1.51884587764321       -0.14114983468380       -1.81602115611517
H            3.05330382460770        0.50017772243222       -1.84833646980388
H            1.49276695384059       -0.08364368998165        0.60653571576901
H            3.13997543333311        0.57498288560621        0.56314746647713
H            5.04056162206623       -0.85401034827706       -0.00549914363879
H            5.93456319846697       -3.11078021217336       -0.21599979581348
H            3.73419325071496       -6.17411928807201       -0.59685014568008
H            6.56455833696677       -5.17701047746427        0.00076431003838
H            6.02193173396443       -6.88437953251300       -0.33353007211445
H            1.96385621445827       -4.68441341004768       -0.29308542100640
H            1.05945424937315       -2.42274437208820       -0.08016198710060

          :  Hamiltonian                  GFN2-xTB          :
         :: total energy             -27.942681198084 Eh    ::
         :: gradient norm              0.000544657334 Eh/a0 ::
         :: HOMO-LUMO gap              3.559566188270 eV    ::
         :: SCC energy               -28.452880930260 Eh    ::
         :: -> dispersion             -0.016446106586 Eh    ::
         :: -> Gsolv                  -0.117829298111 Eh    ::
         :: repulsion energy           0.510213419839 Eh    ::

    * Orbital Energies and Occupations

         #    Occupation            Energy/Eh            Energy/eV
      -------------------------------------------------------------
         1        2.0000           -0.6944314             -18.8964
       ...           ...                  ...                  ...
        14        2.0000           -0.5125698             -13.9477
        15        2.0000           -0.5004646             -13.6183
        16        2.0000           -0.4909993             -13.3608
        17        2.0000           -0.4846678             -13.1885
        18        2.0000           -0.4808625             -13.0849
        19        2.0000           -0.4777952             -13.0015
        20        2.0000           -0.4655282             -12.6677
        21        2.0000           -0.4454822             -12.1222
        22        2.0000           -0.4382983             -11.9267
        23        2.0000           -0.4287063             -11.6657
        24        2.0000           -0.4205843             -11.4447
        25        2.0000           -0.4101632             -11.1611
        26        2.0000           -0.3885621             -10.5733 (HOMO)
        27                         -0.2577504              -7.0137 (LUMO)
        28                         -0.2275313              -6.1914
        29                         -0.1821402              -4.9563
        30                         -0.0903816              -2.4594
        31                         -0.0322393              -0.8773
        32                          0.0587806               1.5995
        33                          0.0794006               2.1606
        34                          0.1062522               2.8913
        35                          0.1126790               3.0662
        36                          0.1317110               3.5840
        37                          0.1340011               3.6464
       ...                                ...                  ...
        52                          0.6791873              18.4816
      -------------------------------------------------------------
                  HL-Gap            0.1308117 Eh            3.5596 eV

     #   Z          covCN         q      C6AA      α(0)
     1   7 N        3.485    -0.159    24.429     7.341
     2   6 C        3.737    -0.046    21.485     6.615
     3   6 C        2.970     0.003    27.948     8.672
     4   6 C        2.921    -0.046    29.131     8.851
     5   6 C        2.922    -0.036    28.895     8.815
     6   6 C        2.971     0.015    27.684     8.630
     7   6 C        2.896    -0.037    28.910     8.816
     8   6 C        2.837    -0.092    30.302     9.021
     9   6 C        2.927    -0.038    28.939     8.822
    10   6 C        2.920    -0.046    29.145     8.853
    11   1 H        0.859     0.320     0.656     1.268
    12   1 H        0.859     0.306     0.695     1.306
    13   1 H        0.859     0.307     0.692     1.303
    14   1 H        0.925     0.118     1.628     1.995
    15   1 H        0.925     0.118     1.633     1.998
    16   1 H        0.926     0.061     2.188     2.313
    17   1 H        0.926     0.038     2.472     2.458
    18   1 H        0.925     0.035     2.514     2.479
    19   1 H        0.926     0.046     2.372     2.408
    20   1 H        0.926     0.036     2.509     2.477
    21   1 H        0.926     0.034     2.524     2.484
    22   1 H        0.926     0.061     2.184     2.311

Wiberg/Mayer (AO) data.
largest (>0.10) Wiberg bond orders for each atom

     #   Z sym  total        # sym  WBO       # sym  WBO       # sym  WBO
 ---------------------------------------------------------------------------
     1   7 N    3.653 --     2 C    0.956    12 H    0.892    13 H    0.892
                            11 H    0.884
     2   6 C    3.926 --     3 C    1.010    15 H    0.962    14 H    0.962
                             1 N    0.956
     3   6 C    3.987 --    10 C    1.404     4 C    1.403     2 C    1.010
     4   6 C    3.989 --     5 C    1.463     3 C    1.403    16 H    0.966
                             9 C    0.103
     5   6 C    3.991 --     4 C    1.463     6 C    1.373    17 H    0.966
                            10 C    0.104
     6   6 C    3.989 --     9 C    1.375     5 C    1.373     7 C    1.090
     7   6 C    3.990 --     8 C    1.902     6 C    1.090    18 H    0.964
     8   6 C    3.989 --     7 C    1.902    20 H    0.978    19 H    0.972
     9   6 C    3.991 --    10 C    1.460     6 C    1.375    21 H    0.969
                             4 C    0.103
    10   6 C    3.989 --     9 C    1.460     3 C    1.404    22 H    0.966
                             5 C    0.104
    11   1 H    0.897 --     1 N    0.884
    12   1 H    0.906 --     1 N    0.892
    13   1 H    0.906 --     1 N    0.892
    14   1 H    0.985 --     2 C    0.962
    15   1 H    0.986 --     2 C    0.962
    16   1 H    0.996 --     4 C    0.966
    17   1 H    0.998 --     5 C    0.966
    18   1 H    0.998 --     7 C    0.964
    19   1 H    0.998 --     8 C    0.972
    20   1 H    0.998 --     8 C    0.978
    21   1 H    0.999 --     9 C    0.969
    22   1 H    0.996 --    10 C    0.966
 ---------------------------------------------------------------------------

molecular dipole:
                 x           y           z       tot (Debye)
 q only:        4.116       0.926      -2.238
   full:        4.195       0.718      -2.324      12.326

           -------------------------------------------------
          | TOTAL ENERGY              -27.942681198084 Eh   |
          | GRADIENT NORM               0.000544657334 Eh/α |
          | HOMO-LUMO GAP               3.559566188270 eV   |
           -------------------------------------------------

 * finished run on 2023/01/24 at 14:55:57.589
