   * xtb version 6.5.1 (fef0646) compiled by 'conda@b96dff2e9fd6' on 2023-01-04
          program call               : xtb init.xyz --opt -c 0 -u 0 -P 16 --alpb water

   ID    Z sym.   atoms
    1    7 N      1
    2    6 C      2-6
    3   17 Cl     7
    4    1 H      8-21

      * Solvation model:               ALPB
        Solvent                        water
        Solvent mass                       1.8000E+01 g/mol
          :  Hamiltonian                  GFN2-xTB          :
 * total energy  :   -25.3500357 Eh     change       -0.4575860E-09 Eh
 * total energy  :   -25.3542912 Eh     change       -0.4255517E-02 Eh
 * total energy  :   -25.3555186 Eh     change       -0.1227406E-02 Eh
 * total energy  :   -25.3560261 Eh     change       -0.5075032E-03 Eh
 * total energy  :   -25.3564839 Eh     change       -0.4577901E-03 Eh
 * total energy  :   -25.3569649 Eh     change       -0.4809491E-03 Eh
 * total energy  :   -25.3572687 Eh     change       -0.3038126E-03 Eh
 * total energy  :   -25.3574161 Eh     change       -0.1474045E-03 Eh
 * total energy  :   -25.3574917 Eh     change       -0.7565471E-04 Eh
 * total energy  :   -25.3575861 Eh     change       -0.9432789E-04 Eh
 * total energy  :   -25.3580604 Eh     change       -0.5049567E-04 Eh
 * total energy  :   -25.3581060 Eh     change       -0.4550176E-04 Eh
 * total energy  :   -25.3581398 Eh     change       -0.3388382E-04 Eh
 * total energy  :   -25.3581887 Eh     change       -0.4882175E-04 Eh
 * total energy  :   -25.3582105 Eh     change       -0.2186020E-04 Eh
 * total energy  :   -25.3582218 Eh     change       -0.1133329E-04 Eh
 * total energy  :   -25.3582312 Eh     change       -0.9303319E-05 Eh
 * total energy  :   -25.3582386 Eh     change       -0.7490999E-05 Eh
 * total energy  :   -25.3582428 Eh     change       -0.4107459E-05 Eh
   *** GEOMETRY OPTIMIZATION CONVERGED AFTER 23 ITERATIONS ***

 final structure:
================
21
 xtb: 6.5.1 (fef0646)
N            1.00506743864008       -0.11361053589692        0.27043876730943
C            2.47678389833704        0.00513000178702        0.23454329503566
C            3.06952058747240       -0.08922141273955        1.63627929325118
C            4.59478640472494       -0.00893073046456        1.59758723850137
C            5.20290112634807       -0.05804339240562        2.99819813453380
C            6.72579081525278       -0.01717801979285        2.95363221868902
Cl          -0.12101045178149        0.11086139452843       -2.55347133803693
H            0.60582306620868       -0.03765876374098       -0.69969182387915
H            0.59140806359084        0.63257144572425        0.83436509055944
H            0.72318227238236       -1.02033462451433        0.64904368670269
H            2.73608388648679        0.95842708635933       -0.22540455152603
H            2.87152232180203       -0.78815559800339       -0.40014296109823
H            2.78030143719462       -1.03391259689607        2.09875666354658
H            2.69072830467189        0.72534581930277        2.25524816726481
H            4.89998305483890        0.91761476334207        1.10753221317863
H            4.98909621554328       -0.83802117198375        1.00699197579385
H            4.88308544412653       -0.97258904157814        3.50191515020380
H            4.83764042211441        0.78876746530930        3.58275931063634
H            7.11530860069952       -0.86982529424484        2.40188993993044
H            7.14009253635584       -0.04196838864649        3.95862703243277
H            7.06998455498835        0.89117159455680        2.46391249697024

          :  Hamiltonian                  GFN2-xTB          :
         :: total energy             -25.358242753075 Eh    ::
         :: gradient norm              0.000571838051 Eh/a0 ::
         :: HOMO-LUMO gap             10.157119785106 eV    ::
         :: SCC energy               -25.655565355090 Eh    ::
         :: -> dispersion             -0.010871303515 Eh    ::
         :: -> Gsolv                  -0.071392707346 Eh    ::
         :: repulsion energy           0.297382638560 Eh    ::

    * Orbital Energies and Occupations

         #    Occupation            Energy/Eh            Energy/eV
      -------------------------------------------------------------
         1        2.0000           -1.0066333             -27.3919
       ...           ...                  ...                  ...
        11        2.0000           -0.5160079             -14.0413
        12        2.0000           -0.4891572             -13.3106
        13        2.0000           -0.4867083             -13.2440
        14        2.0000           -0.4797041             -13.0534
        15        2.0000           -0.4558037             -12.4030
        16        2.0000           -0.4526082             -12.3161
        17        2.0000           -0.4362822             -11.8718
        18        2.0000           -0.4305344             -11.7154
        19        2.0000           -0.4278890             -11.6435
        20        2.0000           -0.4168305             -11.3425
        21        2.0000           -0.4037078             -10.9854
        22        2.0000           -0.4007763             -10.9057
        23        2.0000           -0.4007480             -10.9049 (HOMO)
        24                         -0.0274807              -0.7478 (LUMO)
        25                          0.0630225               1.7149
        26                          0.0856954               2.3319
        27                          0.1087563               2.9594
        28                          0.1135107               3.0888
        29                          0.1161740               3.1613
        30                          0.1167603               3.1772
        31                          0.1168130               3.1786
        32                          0.1191927               3.2434
        33                          0.1192023               3.2437
        34                          0.1446795               3.9369
       ...                                ...                  ...
        47                          0.3195107               8.6943
      -------------------------------------------------------------
                  HL-Gap            0.3732673 Eh           10.1571 eV

     #   Z          covCN         q      C6AA      α(0)
     1   7 N        3.483    -0.166    24.588     7.365
     2   6 C        3.733    -0.024    21.085     6.554
     3   6 C        3.803    -0.083    22.073     6.689
     4   6 C        3.804    -0.069    21.813     6.649
     5   6 C        3.801    -0.062    21.685     6.630
     6   6 C        3.752    -0.113    22.715     6.797
     7  17 Cl       0.055    -0.947   124.854    17.006
     8   1 H        0.911     0.293     0.729     1.336
     9   1 H        0.859     0.297     0.722     1.331
    10   1 H        0.859     0.297     0.722     1.332
    11   1 H        0.925     0.093     1.848     2.126
    12   1 H        0.925     0.093     1.845     2.124
    13   1 H        0.924     0.064     2.151     2.294
    14   1 H        0.924     0.064     2.158     2.297
    15   1 H        0.924     0.040     2.449     2.447
    16   1 H        0.924     0.041     2.441     2.443
    17   1 H        0.924     0.037     2.485     2.465
    18   1 H        0.924     0.037     2.493     2.469
    19   1 H        0.925     0.035     2.510     2.478
    20   1 H        0.925     0.035     2.520     2.482
    21   1 H        0.925     0.035     2.513     2.479

Wiberg/Mayer (AO) data.
largest (>0.10) Wiberg bond orders for each atom

     #   Z sym  total        # sym  WBO       # sym  WBO       # sym  WBO
 ---------------------------------------------------------------------------
     1   7 N    3.647 --     2 C    0.967    10 H    0.897     9 H    0.897
                             8 H    0.832
     2   6 C    3.930 --     3 C    1.008    11 H    0.969    12 H    0.968
                             1 N    0.967
     3   6 C    3.991 --     2 C    1.008     4 C    1.005    14 H    0.973
                            13 H    0.973
     4   6 C    3.996 --     5 C    1.008     3 C    1.005    15 H    0.977
                            16 H    0.977
     5   6 C    3.997 --     6 C    1.019     4 C    1.008    18 H    0.978
                            17 H    0.978
     6   6 C    3.996 --     5 C    1.019    21 H    0.988    19 H    0.988
                            20 H    0.987
     7  17 Cl   0.104
     8   1 H    0.914 --     1 N    0.832
     9   1 H    0.912 --     1 N    0.897
    10   1 H    0.912 --     1 N    0.897
    11   1 H    0.991 --     2 C    0.969
    12   1 H    0.991 --     2 C    0.968
    13   1 H    0.996 --     3 C    0.973
    14   1 H    0.996 --     3 C    0.973
    15   1 H    0.998 --     4 C    0.977
    16   1 H    0.998 --     4 C    0.977
    17   1 H    0.999 --     5 C    0.978
    18   1 H    0.999 --     5 C    0.978
    19   1 H    0.999 --     6 C    0.988
    20   1 H    0.998 --     6 C    0.987
    21   1 H    0.999 --     6 C    0.988
 ---------------------------------------------------------------------------

molecular dipole:
                 x           y           z       tot (Debye)
 q only:        2.250      -0.395       5.133
   full:        1.891      -0.351       4.486      12.406

           -------------------------------------------------
          | TOTAL ENERGY              -25.358242753075 Eh   |
          | GRADIENT NORM               0.000571838051 Eh/α |
          | HOMO-LUMO GAP              10.157119785106 eV   |
           -------------------------------------------------

 * finished run on 2023/01/24 at 16:05:58.438
