   * xtb version 6.5.1 (fef0646) compiled by 'conda@b96dff2e9fd6' on 2023-01-04
          program call               : xtb init.xyz --opt -c 0 -u 0 -P 16 --alpb water

   ID    Z sym.   atoms
    1    7 N      1
    2    6 C      2-5
    3   17 Cl     6
    4    1 H      7-16

      * Solvation model:               ALPB
        Solvent                        water
        Solvent mass                       1.8000E+01 g/mol
          :  Hamiltonian                  GFN2-xTB          :
 * total energy  :   -21.1291194 Eh     change       -0.6350476E-09 Eh
 * total energy  :   -21.1335037 Eh     change       -0.4384351E-02 Eh
 * total energy  :   -21.1344250 Eh     change       -0.9212677E-03 Eh
 * total energy  :   -21.1347504 Eh     change       -0.3254099E-03 Eh
 * total energy  :   -21.1348761 Eh     change       -0.1257331E-03 Eh
 * total energy  :   -21.1349665 Eh     change       -0.9033526E-04 Eh
 * total energy  :   -21.1351019 Eh     change       -0.1354286E-03 Eh
 * total energy  :   -21.1352040 Eh     change       -0.1021383E-03 Eh
 * total energy  :   -21.1352779 Eh     change       -0.7383021E-04 Eh
 * total energy  :   -21.1353401 Eh     change       -0.6219996E-04 Eh
 * total energy  :   -21.1354012 Eh     change       -0.6112959E-04 Eh
 * total energy  :   -21.1354273 Eh     change       -0.2611728E-04 Eh
 * total energy  :   -21.1354543 Eh     change       -0.2694749E-04 Eh
 * total energy  :   -21.1354665 Eh     change       -0.1220535E-04 Eh
 * total energy  :   -21.1354762 Eh     change       -0.9689192E-05 Eh
 * total energy  :   -21.1354864 Eh     change       -0.1025235E-04 Eh
 * total energy  :   -21.1354949 Eh     change       -0.8450718E-05 Eh
 * total energy  :   -21.1355004 Eh     change       -0.5489618E-05 Eh
 * total energy  :   -21.1355042 Eh     change       -0.3859530E-05 Eh
   *** GEOMETRY OPTIMIZATION CONVERGED AFTER 19 ITERATIONS ***

 final structure:
================
16
 xtb: 6.5.1 (fef0646)
N            1.03122814589772        0.18913413793981        0.36629022759586
C            2.48841661306798        0.41821109942354        0.42966653713496
C            2.95287489558575        1.16968691932167       -0.81590273664252
C            4.44572009109884        1.25409928609832       -0.87318990685058
C            5.12837220443416        2.38126272150642       -0.94644635832874
Cl           0.39391332831867       -1.41960613217167       -2.15478770064995
H            0.69744670946869       -0.33523810184290        1.17798099149801
H            0.79769865350737       -0.36979063551466       -0.49473797074717
H            0.52497242118717        1.07538631012733        0.29570753813143
H            2.98944442403053       -0.54851360326020        0.47222864921272
H            2.73298396758508        0.98984887546493        1.32556109672066
H            2.53018040081345        2.17405796016147       -0.83817296487068
H            2.59438585362431        0.62206103785572       -1.69211864201187
H            4.96309702548835        0.30411627556454       -0.85730097149651
H            4.63988600469964        3.34136869553053       -0.97047352941250
H            6.20346926119246        2.39535515379459       -0.99698425928228

          :  Hamiltonian                  GFN2-xTB          :
         :: total energy             -21.135504211741 Eh    ::
         :: gradient norm              0.000472777050 Eh/a0 ::
         :: HOMO-LUMO gap              5.373710432122 eV    ::
         :: SCC energy               -21.397267995818 Eh    ::
         :: -> dispersion             -0.008398432492 Eh    ::
         :: -> Gsolv                  -0.072660227082 Eh    ::
         :: repulsion energy           0.261752655004 Eh    ::

    * Orbital Energies and Occupations

         #    Occupation            Energy/Eh            Energy/eV
      -------------------------------------------------------------
         1        2.0000           -1.0069444             -27.4004
       ...           ...                  ...                  ...
         7        2.0000           -0.5647956             -15.3689
         8        2.0000           -0.5376449             -14.6301
         9        2.0000           -0.5328050             -14.4984
        10        2.0000           -0.5021046             -13.6630
        11        2.0000           -0.4867599             -13.2454
        12        2.0000           -0.4686438             -12.7524
        13        2.0000           -0.4584091             -12.4739
        14        2.0000           -0.4360644             -11.8659
        15        2.0000           -0.4256625             -11.5829
        16        2.0000           -0.4043979             -11.0042
        17        2.0000           -0.4014174             -10.9231
        18        2.0000           -0.4008112             -10.9066
        19        2.0000           -0.3957007             -10.7676 (HOMO)
        20                         -0.1982205              -5.3939 (LUMO)
        21                         -0.0252246              -0.6864
        22                          0.0789493               2.1483
        23                          0.1007372               2.7412
        24                          0.1042555               2.8369
        25                          0.1164739               3.1694
        26                          0.1168365               3.1793
        27                          0.1188856               3.2350
        28                          0.1190491               3.2395
        29                          0.1290728               3.5122
        30                          0.1416356               3.8541
       ...                                ...                  ...
        39                          0.6281908              17.0939
      -------------------------------------------------------------
                  HL-Gap            0.1974802 Eh            5.3737 eV

     #   Z          covCN         q      C6AA      α(0)
     1   7 N        3.484    -0.170    24.662     7.376
     2   6 C        3.734    -0.023    21.076     6.552
     3   6 C        3.807    -0.080    22.026     6.681
     4   6 C        2.888    -0.031    28.778     8.795
     5   6 C        2.837    -0.106    30.669     9.075
     6  17 Cl       0.049    -0.947   124.877    17.007
     7   1 H        0.859     0.304     0.701     1.312
     8   1 H        0.906     0.294     0.727     1.334
     9   1 H        0.859     0.298     0.720     1.329
    10   1 H        0.925     0.097     1.812     2.105
    11   1 H        0.924     0.105     1.738     2.062
    12   1 H        0.925     0.068     2.112     2.273
    13   1 H        0.924     0.070     2.085     2.258
    14   1 H        0.925     0.038     2.480     2.463
    15   1 H        0.926     0.047     2.362     2.403
    16   1 H        0.926     0.037     2.483     2.464

Wiberg/Mayer (AO) data.
largest (>0.10) Wiberg bond orders for each atom

     #   Z sym  total        # sym  WBO       # sym  WBO       # sym  WBO
 ---------------------------------------------------------------------------
     1   7 N    3.644 --     2 C    0.969     9 H    0.896     7 H    0.894
                             8 H    0.832
     2   6 C    3.932 --     3 C    0.997     1 N    0.969    10 H    0.969
                            11 H    0.968
     3   6 C    3.992 --     4 C    1.024     2 C    0.997    12 H    0.971
                            13 H    0.954
     4   6 C    3.991 --     5 C    1.980     3 C    1.024    14 H    0.966
     5   6 C    3.990 --     4 C    1.980    16 H    0.977    15 H    0.974
     6  17 Cl   0.103
     7   1 H    0.907 --     1 N    0.894
     8   1 H    0.913 --     1 N    0.832
     9   1 H    0.911 --     1 N    0.896
    10   1 H    0.991 --     2 C    0.969
    11   1 H    0.989 --     2 C    0.968
    12   1 H    0.995 --     3 C    0.971
    13   1 H    0.995 --     3 C    0.954
    14   1 H    0.999 --     4 C    0.966
    15   1 H    0.998 --     5 C    0.974
    16   1 H    0.998 --     5 C    0.977
 ---------------------------------------------------------------------------

molecular dipole:
                 x           y           z       tot (Debye)
 q only:        1.216       2.882       4.456
   full:        0.915       2.450       3.864      11.859

           -------------------------------------------------
          | TOTAL ENERGY              -21.135504211741 Eh   |
          | GRADIENT NORM               0.000472777050 Eh/α |
          | HOMO-LUMO GAP               5.373710432122 eV   |
           -------------------------------------------------

 * finished run on 2023/01/24 at 14:57:46.666
