   * xtb version 6.5.1 (fef0646) compiled by 'conda@b96dff2e9fd6' on 2023-01-04
          program call               : xtb init.xyz --opt -c 0 -u 0 -P 16 --alpb water

   ID    Z sym.   atoms
    1    7 N      1
    2    6 C      2-9
    3   17 Cl     10
    4    1 H      11-22

      * Solvation model:               ALPB
        Solvent                        water
        Solvent mass                       1.8000E+01 g/mol
          :  Hamiltonian                  GFN2-xTB          :
 * total energy  :   -30.7323938 Eh     change       -0.3251408E-09 Eh
 * total energy  :   -30.7380868 Eh     change       -0.5692944E-02 Eh
 * total energy  :   -30.7393450 Eh     change       -0.1258254E-02 Eh
 * total energy  :   -30.7396535 Eh     change       -0.3084387E-03 Eh
 * total energy  :   -30.7399553 Eh     change       -0.3018010E-03 Eh
 * total energy  :   -30.7403701 Eh     change       -0.4148775E-03 Eh
 * total energy  :   -30.7411427 Eh     change       -0.7725698E-03 Eh
 * total energy  :   -30.7418765 Eh     change       -0.7338310E-03 Eh
 * total energy  :   -30.7428975 Eh     change       -0.1020968E-02 Eh
 * total energy  :   -30.7435314 Eh     change       -0.6338500E-03 Eh
 * total energy  :   -30.7477176 Eh     change       -0.5755811E-04 Eh
 * total energy  :   -30.7477644 Eh     change       -0.4678093E-04 Eh
 * total energy  :   -30.7477916 Eh     change       -0.2726444E-04 Eh
 * total energy  :   -30.7477972 Eh     change       -0.5542698E-05 Eh
 * total energy  :   -30.7478071 Eh     change       -0.9887500E-05 Eh
 * total energy  :   -30.7478118 Eh     change       -0.4722685E-05 Eh
 * total energy  :   -30.7478126 Eh     change       -0.8200728E-06 Eh
 * total energy  :   -30.7478138 Eh     change       -0.1174329E-05 Eh
 * total energy  :   -30.7478147 Eh     change       -0.9198684E-06 Eh
   *** GEOMETRY OPTIMIZATION CONVERGED AFTER 42 ITERATIONS ***

 final structure:
================
22
 xtb: 6.5.1 (fef0646)
N            0.90460665700705        0.01870271351291        0.02706194822548
C            2.38094764218218        0.17715629488221        0.08573208159629
C            2.99045814093985       -1.15022576268804        0.52265715350246
C            2.93240488974584        0.60723143781308       -1.25211812617371
C            3.87655025196094        1.62467342382663       -1.31481622425502
C            4.41855827632332        2.00741640266189       -2.52925290565119
C            4.01777473831391        1.37718342802035       -3.69502463423658
C            3.07910468659526        0.36038813767287       -3.63850043192290
C            2.53882085637860       -0.02738151441795       -2.42460516560773
Cl          -0.08361546472356       -2.47638730061880       -1.47118814115226
H            0.52032287942624       -0.13267481160811        0.96277210820317
H            0.63637890538795       -0.82919057033106       -0.53475416391990
H            0.45543892603048        0.82912857184744       -0.40485551458161
H            2.61326934975943        0.95056791386529        0.82397509952557
H            2.65844306311441       -1.94060771455259       -0.14626379265391
H            2.68845459293128       -1.40122666572809        1.53513185585941
H            4.07410536469931       -1.09956431520025        0.48543838887698
H            4.19524950017130        2.11935663542187       -0.40935828001113
H            5.15175222838546        2.79857417846299       -2.56820721460001
H            4.43658968132985        1.67431711060376       -4.64493008315238
H            2.76497652291380       -0.13680756800213       -4.54518982840763
H            1.81511831112080       -0.82806002542836       -2.39803412945390

          :  Hamiltonian                  GFN2-xTB          :
         :: total energy             -30.747814688454 Eh    ::
         :: gradient norm              0.000641311698 Eh/a0 ::
         :: HOMO-LUMO gap              4.751392107001 eV    ::
         :: SCC energy               -31.199404660226 Eh    ::
         :: -> dispersion             -0.018042468270 Eh    ::
         :: -> Gsolv                  -0.069313235773 Eh    ::
         :: repulsion energy           0.451461129168 Eh    ::

    * Orbital Energies and Occupations

         #    Occupation            Energy/Eh            Energy/eV
      -------------------------------------------------------------
         1        2.0000           -1.0073663             -27.4118
       ...           ...                  ...                  ...
        16        2.0000           -0.4804956             -13.0750
        17        2.0000           -0.4754158             -12.9367
        18        2.0000           -0.4712603             -12.8236
        19        2.0000           -0.4635491             -12.6138
        20        2.0000           -0.4591052             -12.4929
        21        2.0000           -0.4448312             -12.1045
        22        2.0000           -0.4211128             -11.4591
        23        2.0000           -0.4166551             -11.3378
        24        2.0000           -0.4036252             -10.9832
        25        2.0000           -0.4009233             -10.9097
        26        2.0000           -0.4005009             -10.8982
        27        2.0000           -0.3990933             -10.8599
        28        2.0000           -0.3976505             -10.8206 (HOMO)
        29                         -0.2230400              -6.0692 (LUMO)
        30                         -0.2188781              -5.9560
        31                         -0.0939994              -2.5579
        32                         -0.0235151              -0.6399
        33                          0.0752420               2.0474
        34                          0.0814386               2.2161
        35                          0.0990817               2.6961
        36                          0.1137247               3.0946
        37                          0.1154443               3.1414
        38                          0.1165848               3.1724
        39                          0.1182080               3.2166
       ...                                ...                  ...
        57                          0.6676837              18.1686
      -------------------------------------------------------------
                  HL-Gap            0.1746104 Eh            4.7514 eV

     #   Z          covCN         q      C6AA      α(0)
     1   7 N        3.486    -0.178    24.843     7.403
     2   6 C        3.787     0.033    20.040     6.376
     3   6 C        3.757    -0.136    23.175     6.864
     4   6 C        2.974     0.007    27.868     8.659
     5   6 C        2.924    -0.043    29.076     8.843
     6   6 C        2.919    -0.035    28.866     8.810
     7   6 C        2.920    -0.035    28.864     8.810
     8   6 C        2.920    -0.031    28.767     8.795
     9   6 C        2.922    -0.038    28.944     8.823
    10  17 Cl       0.038    -0.947   124.861    17.006
    11   1 H        0.859     0.302     0.708     1.318
    12   1 H        0.894     0.297     0.718     1.326
    13   1 H        0.859     0.296     0.724     1.333
    14   1 H        0.924     0.101     1.776     2.084
    15   1 H        0.925     0.063     2.160     2.298
    16   1 H        0.925     0.072     2.065     2.247
    17   1 H        0.925     0.069     2.094     2.263
    18   1 H        0.926     0.053     2.277     2.360
    19   1 H        0.926     0.040     2.444     2.445
    20   1 H        0.926     0.031     2.576     2.510
    21   1 H        0.926     0.023     2.688     2.564
    22   1 H        0.926     0.055     2.258     2.350

Wiberg/Mayer (AO) data.
largest (>0.10) Wiberg bond orders for each atom

     #   Z sym  total        # sym  WBO       # sym  WBO       # sym  WBO
 ---------------------------------------------------------------------------
     1   7 N    3.640 --     2 C    0.947    13 H    0.897    11 H    0.894
                            12 H    0.830
     2   6 C    3.937 --     3 C    0.999     4 C    0.996    14 H    0.956
                             1 N    0.947
     3   6 C    3.986 --     2 C    0.999    15 H    0.981    16 H    0.980
                            17 H    0.980
     4   6 C    3.987 --     5 C    1.416     9 C    1.412     2 C    0.996
                             7 C    0.109
     5   6 C    3.990 --     6 C    1.443     4 C    1.416    18 H    0.967
                             8 C    0.111
     6   6 C    3.992 --     5 C    1.443     7 C    1.440    19 H    0.970
                             9 C    0.113
     7   6 C    3.992 --     6 C    1.440     8 C    1.439    20 H    0.971
                             4 C    0.109
     8   6 C    3.993 --     9 C    1.445     7 C    1.439    21 H    0.972
                             5 C    0.111
     9   6 C    3.990 --     8 C    1.445     4 C    1.412    22 H    0.962
                             6 C    0.113
    10  17 Cl   0.103
    11   1 H    0.908 --     1 N    0.894
    12   1 H    0.912 --     1 N    0.830
    13   1 H    0.912 --     1 N    0.897
    14   1 H    0.989 --     2 C    0.956
    15   1 H    0.996 --     3 C    0.981
    16   1 H    0.994 --     3 C    0.980
    17   1 H    0.995 --     3 C    0.980
    18   1 H    0.997 --     5 C    0.967
    19   1 H    0.998 --     6 C    0.970
    20   1 H    0.999 --     7 C    0.971
    21   1 H    0.999 --     8 C    0.972
    22   1 H    0.997 --     9 C    0.962
 ---------------------------------------------------------------------------

molecular dipole:
                 x           y           z       tot (Debye)
 q only:        2.035       4.336       2.860
   full:        1.593       3.715       2.426      11.983

           -------------------------------------------------
          | TOTAL ENERGY              -30.747814688454 Eh   |
          | GRADIENT NORM               0.000641311698 Eh/α |
          | HOMO-LUMO GAP               4.751392107001 eV   |
           -------------------------------------------------

 * finished run on 2023/01/24 at 14:58:16.760
