   * xtb version 6.5.1 (fef0646) compiled by 'conda@b96dff2e9fd6' on 2023-01-04
          program call               : xtb init.xyz --opt -c 0 -u 0 -P 16

   ID    Z sym.   atoms
    1    7 N      1
    2    6 C      2-21
    3   16 S      22-25
    4   17 Cl     26
    5    1 H      27-46

          :  Hamiltonian                  GFN2-xTB          :
 * total energy  :   -73.4381129 Eh     change       -0.1006484E-08 Eh
 * total energy  :   -73.4503368 Eh     change       -0.1222391E-01 Eh
 * total energy  :   -73.4568022 Eh     change       -0.6465366E-02 Eh
 * total energy  :   -73.4596777 Eh     change       -0.2875487E-02 Eh
 * total energy  :   -73.4625680 Eh     change       -0.2890337E-02 Eh
 * total energy  :   -73.4649400 Eh     change       -0.2371924E-02 Eh
 * total energy  :   -73.4666084 Eh     change       -0.1668429E-02 Eh
 * total energy  :   -73.4673181 Eh     change       -0.7097253E-03 Eh
 * total energy  :   -73.4676038 Eh     change       -0.2856587E-03 Eh
 * total energy  :   -73.4677812 Eh     change       -0.1773877E-03 Eh
 * total energy  :   -73.4709886 Eh     change       -0.1576993E-04 Eh
 * total energy  :   -73.4710089 Eh     change       -0.2027800E-04 Eh
 * total energy  :   -73.4710338 Eh     change       -0.2493820E-04 Eh
 * total energy  :   -73.4710415 Eh     change       -0.7730806E-05 Eh
 * total energy  :   -73.4710508 Eh     change       -0.9222033E-05 Eh
 * total energy  :   -73.4710555 Eh     change       -0.4744156E-05 Eh
 * total energy  :   -73.4710609 Eh     change       -0.5391439E-05 Eh
 * total energy  :   -73.4710674 Eh     change       -0.6492558E-05 Eh
 * total energy  :   -73.4710718 Eh     change       -0.4425498E-05 Eh
   *** GEOMETRY OPTIMIZATION CONVERGED AFTER 49 ITERATIONS ***

 final structure:
================
46
 xtb: 6.5.1 (fef0646)
N            1.39398344629600       -2.73921057712520        1.38770076686970
C            2.65723783643459       -2.07150280591842        1.68852611665724
C            3.59428533358798       -2.15607176265753        0.47686260800367
C            4.84921179243240       -1.39673360277106        0.72831922038573
C            5.19296396308663       -0.15800765648199        0.27767995574805
C            6.43764749791944        0.28816635961046        0.75475635113434
C            7.05485712499538       -0.61428504835021        1.58488544481834
C            8.31133955997547       -0.48664311232480        2.24725599068775
C            9.14314614139223        0.60668476691077        2.27902494390465
C           10.31653783848734        0.42144568123252        3.02690347492118
C           11.34803493946858        1.48524520093513        3.19258274629412
C           10.39414175431630       -0.84352281659709        3.58049348541025
C           11.40456805831311       -1.43231389271162        4.39078230468286
C           11.43064536169788       -2.72339221423079        4.86929470769016
C           12.55391564986139       -3.01650967725702        5.64723837266761
C           13.41707213273829       -1.95470265644068        5.78469520783762
C           14.64844868910424       -1.86228357621967        6.50628931306036
C           15.51034698965073       -2.85816033213461        6.91100165971656
C           15.34413179379957       -4.31576361275725        6.63419298636902
C           16.62527175218451       -2.34130996000215        7.61110917421552
C           16.61468711741992       -0.98968713465325        7.73064024159713
S           15.23517301561144       -0.29020776840517        6.98822999119123
S           12.81648901310846       -0.56444053421632        4.92499299588523
S            8.99093644449290       -1.79654370270946        3.16463264467421
S            6.07502449715308       -2.04099206155775        1.77391650381079
Cl           0.20175562301294       -1.48410527582100       -0.98411691112646
H            0.74159027868671       -2.65421220177906        2.15910549668210
H            1.54386440863947       -3.72380073034895        1.19215152348963
H            0.75316711371799       -2.06897086184208        0.12558751418576
H            3.16191185575115       -2.50157570532287        2.56551153669403
H            2.43678996993556       -1.02266124989868        1.90070570840282
H            3.08367274133831       -1.73989549521995       -0.39212031330518
H            3.82436702379026       -3.20549581702640        0.27634644190402
H            4.57091197853734        0.41612034977870       -0.38561917647753
H            6.86847904968564        1.23715990322603        0.49341596650489
H            8.91157514224412        1.52931540401645        1.77785875550206
H           11.05152190918444        2.37867271553438        2.64953148640115
H           12.31416440188896        1.14958000440852        2.81645870880630
H           11.47475660676790        1.73989933167950        4.24459216381168
H           10.64782987697274       -3.43095085721647        4.65856431121737
H           12.70489281496313       -3.96908758355089        6.11830761879520
H           14.95590921882489       -4.47679190438615        5.63023158053370
H           14.65307764047230       -4.76741695744318        7.34703037722224
H           16.30273802336655       -4.82061764236418        6.72768041039581
H           17.40907052024002       -2.96468424258131        8.00438444410255
H           17.33395605845215       -0.35558868701687        8.20932514801652

          :  Hamiltonian                  GFN2-xTB          :
         :: total energy             -73.471071817666 Eh    ::
         :: gradient norm              0.000640866427 Eh/a0 ::
         :: HOMO-LUMO gap              1.806243241256 eV    ::
         :: SCC energy               -74.491100916953 Eh    ::
         :: -> dispersion             -0.058126735084 Eh    ::
         :: repulsion energy           1.020781357220 Eh    ::

    * Orbital Energies and Occupations

         #    Occupation            Energy/Eh            Energy/eV
      -------------------------------------------------------------
         1        2.0000           -1.0209916             -27.7826
       ...           ...                  ...                  ...
        56        2.0000           -0.4420492             -12.0288
        57        2.0000           -0.4399558             -11.9718
        58        2.0000           -0.4321664             -11.7598
        59        2.0000           -0.4071234             -11.0784
        60        2.0000           -0.4035761             -10.9819
        61        2.0000           -0.3993522             -10.8669
        62        2.0000           -0.3979650             -10.8292
        63        2.0000           -0.3978824             -10.8269
        64        2.0000           -0.3973885             -10.8135
        65        2.0000           -0.3936264             -10.7111
        66        2.0000           -0.3919101             -10.6644
        67        2.0000           -0.3787758             -10.3070
        68        2.0000           -0.3521527              -9.5826 (HOMO)
        69                         -0.2857745              -7.7763 (LUMO)
        70                         -0.2587076              -7.0398
        71                         -0.2309249              -6.2838
        72                         -0.2237009              -6.0872
        73                         -0.2160230              -5.8783
        74                         -0.2033409              -5.5332
        75                         -0.1926226              -5.2415
        76                         -0.1857005              -5.0532
        77                         -0.1826722              -4.9708
        78                         -0.1642374              -4.4691
        79                         -0.1507081              -4.1010
       ...                                ...                  ...
       149                          0.7002638              19.0551
      -------------------------------------------------------------
                  HL-Gap            0.0663782 Eh            1.8062 eV

     #   Z          covCN         q      C6AA      α(0)
     1   7 N        2.689    -0.305    27.847     7.837
     2   6 C        3.733     0.010    20.499     6.462
     3   6 C        3.827    -0.075    21.918     6.662
     4   6 C        2.988     0.021    27.530     8.607
     5   6 C        3.110    -0.054    29.176     8.849
     6   6 C        3.106    -0.053    29.170     8.849
     7   6 C        3.019     0.019    27.554     8.610
     8   6 C        3.012     0.021    27.524     8.606
     9   6 C        3.111    -0.060    29.325     8.872
    10   6 C        3.126     0.001    27.807     8.634
    11   6 C        3.756    -0.108    22.611     6.780
    12   6 C        3.017     0.011    27.757     8.642
    13   6 C        3.027     0.022    27.496     8.601
    14   6 C        3.108    -0.052    29.143     8.845
    15   6 C        3.099    -0.052    29.173     8.851
    16   6 C        3.026     0.020    27.535     8.607
    17   6 C        3.030     0.008    27.803     8.649
    18   6 C        3.137    -0.004    27.899     8.645
    19   6 C        3.755    -0.103    22.523     6.767
    20   6 C        3.121    -0.052    29.097     8.834
    21   6 C        2.931    -0.020    28.516     8.758
    22  16 S        2.362    -0.039   142.661    20.103
    23  16 S        2.391    -0.044   142.882    20.118
    24  16 S        2.372    -0.053   143.254    20.144
    25  16 S        2.374    -0.049   143.068    20.131
    26  17 Cl       0.838    -0.483   115.057    16.409
    27   1 H        0.860     0.168     1.284     1.775
    28   1 H        0.860     0.169     1.278     1.771
    29   1 H        0.896     0.333     0.620     1.232
    30   1 H        0.923     0.033     2.540     2.493
    31   1 H        0.924     0.056     2.252     2.347
    32   1 H        0.924     0.076     2.016     2.221
    33   1 H        0.924     0.053     2.278     2.360
    34   1 H        0.926     0.044     2.393     2.419
    35   1 H        0.926     0.039     2.466     2.456
    36   1 H        0.926     0.037     2.488     2.467
    37   1 H        0.925     0.050     2.322     2.383
    38   1 H        0.925     0.055     2.253     2.347
    39   1 H        0.925     0.056     2.244     2.343
    40   1 H        0.926     0.041     2.435     2.440
    41   1 H        0.926     0.040     2.443     2.444
    42   1 H        0.925     0.047     2.364     2.404
    43   1 H        0.924     0.046     2.368     2.406
    44   1 H        0.925     0.047     2.352     2.398
    45   1 H        0.926     0.037     2.491     2.468
    46   1 H        0.926     0.044     2.394     2.419

Wiberg/Mayer (AO) data.
largest (>0.10) Wiberg bond orders for each atom

     #   Z sym  total        # sym  WBO       # sym  WBO       # sym  WBO
 ---------------------------------------------------------------------------
     1   7 N    3.235 --     2 C    1.007    27 H    0.958    28 H    0.957
                            29 H    0.202
     2   6 C    3.971 --     1 N    1.007     3 C    0.986    31 H    0.975
                            30 H    0.972
     3   6 C    3.992 --     4 C    1.026     2 C    0.986    33 H    0.966
                            32 H    0.963
     4   6 C    3.925 --     5 C    1.572    25 S    1.156     3 C    1.026
     5   6 C    3.985 --     4 C    1.572     6 C    1.302    34 H    0.963
     6   6 C    3.968 --     7 C    1.498     5 C    1.302    35 H    0.964
     7   6 C    3.949 --     6 C    1.498     8 C    1.162    25 S    1.125
     8   6 C    3.933 --     9 C    1.474     7 C    1.162    24 S    1.130
     9   6 C    3.981 --     8 C    1.474    10 C    1.315    36 H    0.962
    10   6 C    3.973 --    12 C    1.438     9 C    1.315    11 C    1.028
    11   6 C    3.995 --    10 C    1.028    37 H    0.982    38 H    0.965
                            39 H    0.964
    12   6 C    3.932 --    10 C    1.438    13 C    1.181    24 S    1.111
    13   6 C    3.940 --    14 C    1.464    12 C    1.181    23 S    1.123
    14   6 C    3.971 --    13 C    1.464    15 C    1.345    40 H    0.960
    15   6 C    3.984 --    16 C    1.475    14 C    1.345    41 H    0.962
    16   6 C    3.930 --    15 C    1.475    17 C    1.153    23 S    1.130
    17   6 C    3.946 --    18 C    1.481    16 C    1.153    22 S    1.123
    18   6 C    3.969 --    17 C    1.481    20 C    1.270    19 C    1.025
    19   6 C    3.996 --    18 C    1.025    44 H    0.982    42 H    0.975
                            43 H    0.967
    20   6 C    3.986 --    21 C    1.610    18 C    1.270    45 H    0.964
    21   6 C    3.928 --    20 C    1.610    22 S    1.193    46 H    0.970
    22  16 S    2.602 --    21 C    1.193    17 C    1.123
    23  16 S    2.592 --    16 C    1.130    13 C    1.123
    24  16 S    2.564 --     8 C    1.130    12 C    1.111
    25  16 S    2.575 --     4 C    1.156     7 C    1.125
    26  17 Cl   0.770 --    29 H    0.683
    27   1 H    0.971 --     1 N    0.958
    28   1 H    0.971 --     1 N    0.957
    29   1 H    0.889 --    26 Cl   0.683     1 N    0.202
    30   1 H    0.999 --     2 C    0.972
    31   1 H    0.997 --     2 C    0.975
    32   1 H    0.994 --     3 C    0.963
    33   1 H    0.996 --     3 C    0.966
    34   1 H    0.997 --     5 C    0.963
    35   1 H    0.998 --     6 C    0.964
    36   1 H    0.998 --     9 C    0.962
    37   1 H    0.997 --    11 C    0.982
    38   1 H    0.996 --    11 C    0.965
    39   1 H    0.996 --    11 C    0.964
    40   1 H    0.998 --    14 C    0.960
    41   1 H    0.998 --    15 C    0.962
    42   1 H    0.997 --    19 C    0.975
    43   1 H    0.996 --    19 C    0.967
    44   1 H    0.997 --    19 C    0.982
    45   1 H    0.998 --    20 C    0.964
    46   1 H    0.997 --    21 C    0.970
 ---------------------------------------------------------------------------

molecular dipole:
                 x           y           z       tot (Debye)
 q only:        0.916      -0.785       1.387
   full:        0.857      -0.814       1.265       4.399

           -------------------------------------------------
          | TOTAL ENERGY              -73.471071817666 Eh   |
          | GRADIENT NORM               0.000640866427 Eh/α |
          | HOMO-LUMO GAP               1.806243241256 eV   |
           -------------------------------------------------

 * finished run on 2023/01/23 at 13:59:09.706
