   * xtb version 6.5.1 (fef0646) compiled by 'conda@b96dff2e9fd6' on 2023-01-04
          program call               : xtb init.xyz --opt -c 1 -u 0 -P 16 --alpb water

   ID    Z sym.   atoms
    1    7 N      1
    2    6 C      2-7
    3    1 H      8-21

      * Solvation model:               ALPB
        Solvent                        water
        Solvent mass                       1.8000E+01 g/mol
          :  Hamiltonian                  GFN2-xTB          :
 * total energy  :   -22.6029782 Eh     change       -0.4697753E-10 Eh
 * total energy  :   -22.6038611 Eh     change       -0.8828867E-03 Eh
 * total energy  :   -22.6040669 Eh     change       -0.2057678E-03 Eh
 * total energy  :   -22.6041041 Eh     change       -0.3719114E-04 Eh
 * total energy  :   -22.6041127 Eh     change       -0.8562500E-05 Eh
 * total energy  :   -22.6041144 Eh     change       -0.1709898E-05 Eh
   *** GEOMETRY OPTIMIZATION CONVERGED AFTER 6 ITERATIONS ***

 final structure:
================
21
 xtb: 6.5.1 (fef0646)
N           -1.80122763850576        0.06656402283648        0.81292601307605
C           -1.09546618695651        0.04300022985371       -0.50060931748569
C           -0.19628776579348        1.27173213327071       -0.62290577399960
C            0.98973802663218        1.21912569373403        0.34034870919966
C            1.78613964101291       -0.06760680762782        0.13827885854055
C            0.89490627875539       -1.29158043109142        0.33404396444972
C           -0.29192789690791       -1.24975250956500       -0.62876750267645
H           -2.35095221034525        0.92682169571695        0.91438570227385
H           -1.10525523110078        0.03209759112555        1.56692318280708
H           -2.42390802252574       -0.74355514236669        0.90556264355428
H           -1.85406219123415        0.07360697989363       -1.28668920509118
H           -0.77239547440532        2.18273104080014       -0.45759639076200
H            0.18555883682522        1.31342649980306       -1.64318745399581
H            0.66138159928792        1.28792861455956        1.37895348013105
H            1.63555933460524        2.07908075707562        0.15805104335703
H            2.62465335992003       -0.10106205461340        0.83618203979948
H            2.20212921800432       -0.08078839692056       -0.87138394734741
H            0.56270706738119       -1.34081015397621        1.37255940089803
H            1.47388792629653       -2.19692897423346        0.14698485071659
H           -0.93539299997989       -2.11514061472724       -0.46703955128849
H            0.08534432903388       -1.31584017354765       -1.64945074615674

          :  Hamiltonian                  GFN2-xTB          :
         :: total energy             -22.604114363972 Eh    ::
         :: gradient norm              0.000241239964 Eh/a0 ::
         :: HOMO-LUMO gap             10.037965550888 eV    ::
         :: SCC energy               -22.927842559803 Eh    ::
         :: -> dispersion             -0.013144693146 Eh    ::
         :: -> Gsolv                  -0.108842786765 Eh    ::
         :: repulsion energy           0.323661093682 Eh    ::

    * Orbital Energies and Occupations

         #    Occupation            Energy/Eh            Energy/eV
      -------------------------------------------------------------
         1        2.0000           -0.6942554             -18.8917
       ...           ...                  ...                  ...
         9        2.0000           -0.5651385             -15.3782
        10        2.0000           -0.5330675             -14.5055
        11        2.0000           -0.5261775             -14.3180
        12        2.0000           -0.5029598             -13.6862
        13        2.0000           -0.4995697             -13.5940
        14        2.0000           -0.4837979             -13.1648
        15        2.0000           -0.4748556             -12.9215
        16        2.0000           -0.4728571             -12.8671
        17        2.0000           -0.4674291             -12.7194
        18        2.0000           -0.4432403             -12.0612
        19        2.0000           -0.4256871             -11.5835
        20        2.0000           -0.4219124             -11.4808
        21        2.0000           -0.4216103             -11.4726 (HOMO)
        22                         -0.0527218              -1.4346 (LUMO)
        23                          0.0369302               1.0049
        24                          0.0675880               1.8392
        25                          0.0705960               1.9210
        26                          0.0857283               2.3328
        27                          0.0956871               2.6038
        28                          0.0998354               2.7167
        29                          0.1135522               3.0899
        30                          0.1346488               3.6640
        31                          0.1516599               4.1269
        32                          0.1762164               4.7951
       ...                                ...                  ...
        42                          0.3101025               8.4383
      -------------------------------------------------------------
                  HL-Gap            0.3688884 Eh           10.0380 eV

     #   Z          covCN         q      C6AA      α(0)
     1   7 N        3.486    -0.164    24.526     7.355
     2   6 C        3.783     0.026    20.153     6.395
     3   6 C        3.807    -0.085    22.115     6.695
     4   6 C        3.804    -0.070    21.845     6.654
     5   6 C        3.805    -0.066    21.755     6.640
     6   6 C        3.804    -0.070    21.844     6.654
     7   6 C        3.807    -0.085    22.115     6.695
     8   1 H        0.859     0.308     0.689     1.300
     9   1 H        0.859     0.296     0.725     1.333
    10   1 H        0.859     0.308     0.689     1.300
    11   1 H        0.924     0.098     1.804     2.101
    12   1 H        0.924     0.066     2.130     2.282
    13   1 H        0.925     0.066     2.127     2.281
    14   1 H        0.924     0.052     2.295     2.369
    15   1 H        0.924     0.037     2.494     2.470
    16   1 H        0.924     0.027     2.623     2.533
    17   1 H        0.924     0.034     2.537     2.491
    18   1 H        0.924     0.052     2.296     2.369
    19   1 H        0.924     0.037     2.494     2.470
    20   1 H        0.924     0.066     2.130     2.282
    21   1 H        0.925     0.066     2.127     2.281

Wiberg/Mayer (AO) data.
largest (>0.10) Wiberg bond orders for each atom

     #   Z sym  total        # sym  WBO       # sym  WBO       # sym  WBO
 ---------------------------------------------------------------------------
     1   7 N    3.654 --     2 C    0.945    10 H    0.890     8 H    0.890
                             9 H    0.886
     2   6 C    3.936 --     3 C    0.999     7 C    0.999    11 H    0.959
                             1 N    0.945
     3   6 C    3.990 --     4 C    1.008     2 C    0.999    12 H    0.971
                            13 H    0.970
     4   6 C    3.996 --     5 C    1.009     3 C    1.008    15 H    0.976
                            14 H    0.971
     5   6 C    3.996 --     6 C    1.009     4 C    1.009    16 H    0.977
                            17 H    0.977
     6   6 C    3.996 --     5 C    1.009     7 C    1.008    19 H    0.976
                            18 H    0.971
     7   6 C    3.990 --     6 C    1.008     2 C    0.999    20 H    0.971
                            21 H    0.970
     8   1 H    0.905 --     1 N    0.890
     9   1 H    0.912 --     1 N    0.886
    10   1 H    0.905 --     1 N    0.890
    11   1 H    0.990 --     2 C    0.959
    12   1 H    0.996 --     3 C    0.971
    13   1 H    0.996 --     3 C    0.970
    14   1 H    0.997 --     4 C    0.971
    15   1 H    0.999 --     4 C    0.976
    16   1 H    0.999 --     5 C    0.977
    17   1 H    0.999 --     5 C    0.977
    18   1 H    0.997 --     6 C    0.971
    19   1 H    0.999 --     6 C    0.976
    20   1 H    0.996 --     7 C    0.971
    21   1 H    0.996 --     7 C    0.970
 ---------------------------------------------------------------------------

molecular dipole:
                 x           y           z       tot (Debye)
 q only:       -3.204       0.119       1.270
   full:       -3.166       0.117       1.343       8.747

           -------------------------------------------------
          | TOTAL ENERGY              -22.604114363972 Eh   |
          | GRADIENT NORM               0.000241239964 Eh/α |
          | HOMO-LUMO GAP              10.037965550888 eV   |
           -------------------------------------------------

 * finished run on 2023/01/24 at 14:55:53.712
