   * xtb version 6.5.1 (fef0646) compiled by 'conda@b96dff2e9fd6' on 2023-01-04
          program call               : xtb init.xyz --opt -c 1 -u 0 -P 16

   ID    Z sym.   atoms
    1    7 N      1
    2    6 C      2, 3
    3    9 F      4
    4    1 H      5-11

          :  Hamiltonian                  GFN2-xTB          :
 * total energy  :   -15.0502516 Eh     change       -0.4993339E-11 Eh
 * total energy  :   -15.0508981 Eh     change       -0.6465403E-03 Eh
 * total energy  :   -15.0509932 Eh     change       -0.9512325E-04 Eh
 * total energy  :   -15.0510170 Eh     change       -0.2377376E-04 Eh
 * total energy  :   -15.0510303 Eh     change       -0.1326379E-04 Eh
 * total energy  :   -15.0510372 Eh     change       -0.6899243E-05 Eh
 * total energy  :   -15.0510398 Eh     change       -0.2621144E-05 Eh
   *** GEOMETRY OPTIMIZATION CONVERGED AFTER 7 ITERATIONS ***

 final structure:
================
11
 xtb: 6.5.1 (fef0646)
N            0.95611286899537        0.06387810225981        0.05652839782694
C            2.44699542616978        0.00540577122300        0.08045332586328
C            2.93032071539528        0.75195355443601        1.32018029817783
F            2.31277816828735        1.97624121503147        1.31087986897297
H            0.57046066301256       -0.29777473655034       -0.82460720271042
H            0.67829282034177        1.05469109032872        0.16661340061783
H            0.55188411157055       -0.46584212165287        0.84153276943777
H            2.82369929031648        0.50173690756864       -0.81663865197919
H            2.79067179055115       -1.02857491746651        0.09416132063827
H            4.01002629348245        0.91600997674200        1.29894136682627
H            2.64353785187727        0.25558515808005        2.25254510632844

          :  Hamiltonian                  GFN2-xTB          :
         :: total energy             -15.051039778131 Eh    ::
         :: gradient norm              0.000278826324 Eh/a0 ::
         :: HOMO-LUMO gap              9.411379877885 eV    ::
         :: SCC energy               -15.195453095387 Eh    ::
         :: -> dispersion             -0.003362702008 Eh    ::
         :: repulsion energy           0.144411700992 Eh    ::

    * Orbital Energies and Occupations

         #    Occupation            Energy/Eh            Energy/eV
      -------------------------------------------------------------
         1        2.0000           -0.9859354             -26.8287
         2        2.0000           -0.9160515             -24.9270
         3        2.0000           -0.8665477             -23.5800
         4        2.0000           -0.8256450             -22.4669
         5        2.0000           -0.8159826             -22.2040
         6        2.0000           -0.8022096             -21.8292
         7        2.0000           -0.7636110             -20.7789
         8        2.0000           -0.7308861             -19.8884
         9        2.0000           -0.7172531             -19.5175
        10        2.0000           -0.7064173             -19.2226
        11        2.0000           -0.6831938             -18.5906
        12        2.0000           -0.6418779             -17.4664
        13        2.0000           -0.6290019             -17.1160 (HOMO)
        14                         -0.2831400              -7.7046 (LUMO)
        15                         -0.1767129              -4.8086
        16                         -0.1364751              -3.7137
        17                         -0.1268316              -3.4513
        18                         -0.1072606              -2.9187
        19                         -0.0828543              -2.2546
        20                         -0.0328773              -0.8946
        21                         -0.0151327              -0.4118
        22                          0.0255048               0.6940
        23                          0.0650364               1.7697
      -------------------------------------------------------------
                  HL-Gap            0.3458618 Eh            9.4114 eV

     #   Z          covCN         q      C6AA      α(0)
     1   7 N        3.484    -0.123    23.670     7.226
     2   6 C        3.731    -0.040    21.376     6.600
     3   6 C        3.609     0.082    19.717     6.413
     4   9 F        0.786    -0.237    11.620     4.027
     5   1 H        0.859     0.276     0.788     1.391
     6   1 H        0.859     0.296     0.724     1.333
     7   1 H        0.859     0.277     0.787     1.390
     8   1 H        0.924     0.131     1.525     1.931
     9   1 H        0.925     0.122     1.593     1.974
    10   1 H        0.924     0.119     1.619     1.990
    11   1 H        0.924     0.095     1.829     2.115

Wiberg/Mayer (AO) data.
largest (>0.10) Wiberg bond orders for each atom

     #   Z sym  total        # sym  WBO       # sym  WBO       # sym  WBO
 ---------------------------------------------------------------------------
     1   7 N    3.677 --     2 C    0.946     5 H    0.910     7 H    0.908
                             6 H    0.892
     2   6 C    3.903 --     3 C    1.007     9 H    0.965     8 H    0.961
                             1 N    0.946
     3   6 C    3.891 --     2 C    1.007    11 H    0.963    10 H    0.957
                             4 F    0.948
     4   9 F    1.017 --     3 C    0.948
     5   1 H    0.924 --     1 N    0.910
     6   1 H    0.912 --     1 N    0.892
     7   1 H    0.923 --     1 N    0.908
     8   1 H    0.983 --     2 C    0.961
     9   1 H    0.985 --     2 C    0.965
    10   1 H    0.986 --     3 C    0.957
    11   1 H    0.991 --     3 C    0.963
 ---------------------------------------------------------------------------

molecular dipole:
                 x           y           z       tot (Debye)
 q only:        2.705      -0.452       0.218
   full:        2.548      -0.570       0.199       6.656

           -------------------------------------------------
          | TOTAL ENERGY              -15.051039778131 Eh   |
          | GRADIENT NORM               0.000278826324 Eh/α |
          | HOMO-LUMO GAP               9.411379877885 eV   |
           -------------------------------------------------

 * finished run on 2023/01/23 at 14:22:56.678
