   * xtb version 6.5.1 (fef0646) compiled by 'conda@b96dff2e9fd6' on 2023-01-04
          program call               : xtb init.xyz --opt -c 0 -u 0 -P 16

   ID    Z sym.   atoms
    1    7 N      1
    2    6 C      2-6
    3    8 O      7, 8
    4   17 Cl     9
    5    1 H      10-21

          :  Hamiltonian                  GFN2-xTB          :
 * total energy  :   -32.4067486 Eh     change       -0.3754153E-09 Eh
 * total energy  :   -32.4145418 Eh     change       -0.7793258E-02 Eh
 * total energy  :   -32.4189797 Eh     change       -0.4437928E-02 Eh
 * total energy  :   -32.4220370 Eh     change       -0.3057295E-02 Eh
 * total energy  :   -32.4251113 Eh     change       -0.3074304E-02 Eh
 * total energy  :   -32.4269499 Eh     change       -0.1838543E-02 Eh
 * total energy  :   -32.4273935 Eh     change       -0.4435894E-03 Eh
 * total energy  :   -32.4278029 Eh     change       -0.4093830E-03 Eh
 * total energy  :   -32.4279163 Eh     change       -0.1134840E-03 Eh
 * total energy  :   -32.4279478 Eh     change       -0.3141645E-04 Eh
 * total energy  :   -32.4280226 Eh     change       -0.9845142E-05 Eh
 * total energy  :   -32.4280327 Eh     change       -0.1007199E-04 Eh
 * total energy  :   -32.4280418 Eh     change       -0.9143150E-05 Eh
 * total energy  :   -32.4280536 Eh     change       -0.1180072E-04 Eh
 * total energy  :   -32.4280694 Eh     change       -0.1579286E-04 Eh
 * total energy  :   -32.4280829 Eh     change       -0.1344602E-04 Eh
 * total energy  :   -32.4280906 Eh     change       -0.7732061E-05 Eh
 * total energy  :   -32.4280957 Eh     change       -0.5152960E-05 Eh
 * total energy  :   -32.4280994 Eh     change       -0.3687038E-05 Eh
   *** GEOMETRY OPTIMIZATION CONVERGED AFTER 22 ITERATIONS ***

 final structure:
================
21
 xtb: 6.5.1 (fef0646)
N            0.99858631841968       -0.23709300028038        0.17735802674393
C            2.45778228480701       -0.28141411881371        0.26914156845463
C            3.05743835091054       -0.35015759760295       -1.13384305095998
C            4.57904479357265       -0.20745157308982       -1.14185602406387
C            5.29507660804296       -1.42775921908255       -0.54766636903795
C            6.80061517662677       -1.25190860889194       -0.63032559893406
O            7.31575672297944       -1.33547924646397       -1.86977481107460
O            7.50211454099102       -1.04102820394649        0.31383130068069
Cl           0.18587653503376        2.00562810527096       -1.53832252387516
H            0.57658505642102       -0.12405181736728        1.09219795674165
H            0.63707130238793       -1.08588555516866       -0.24538680535759
H            0.55859905718645        0.96634480303806       -0.72610836821525
H            2.80091092921991       -1.13123496235761        0.87420566747060
H            2.78318652245372        0.63966432967937        0.75744491023126
H            2.62456867642935        0.46039186992331       -1.72039645720565
H            2.77322300410200       -1.29395541831536       -1.60544107570890
H            4.86209980565296        0.68145835360677       -0.57580801596354
H            4.90436715502472       -0.05650959417839       -2.17452260187846
H            5.00238835876935       -2.33291378897947       -1.08732074772951
H            5.03410623228562       -1.54359987814406        0.50331559335899
H            6.64274256868335       -1.50763487883585       -2.54129257367745

          :  Hamiltonian                  GFN2-xTB          :
         :: total energy             -32.428099430070 Eh    ::
         :: gradient norm              0.000420959962 Eh/a0 ::
         :: HOMO-LUMO gap              4.335921490729 eV    ::
         :: SCC energy               -32.734124450142 Eh    ::
         :: -> dispersion             -0.013428200134 Eh    ::
         :: repulsion energy           0.306039172758 Eh    ::

    * Orbital Energies and Occupations

         #    Occupation            Energy/Eh            Energy/eV
      -------------------------------------------------------------
         1        2.0000           -1.0246046             -27.8809
       ...           ...                  ...                  ...
        16        2.0000           -0.5207729             -14.1710
        17        2.0000           -0.5167601             -14.0618
        18        2.0000           -0.5095022             -13.8643
        19        2.0000           -0.4957723             -13.4907
        20        2.0000           -0.4852773             -13.2051
        21        2.0000           -0.4840868             -13.1727
        22        2.0000           -0.4792315             -13.0406
        23        2.0000           -0.4616555             -12.5623
        24        2.0000           -0.4598247             -12.5125
        25        2.0000           -0.4231976             -11.5158
        26        2.0000           -0.4074854             -11.0882
        27        2.0000           -0.4016134             -10.9285
        28        2.0000           -0.4015732             -10.9274 (HOMO)
        29                         -0.2422310              -6.5914 (LUMO)
        30                         -0.0647926              -1.7631
        31                         -0.0006051              -0.0165
        32                          0.0478393               1.3018
        33                          0.0556204               1.5135
        34                          0.0596121               1.6221
        35                          0.0608888               1.6569
        36                          0.0652605               1.7758
        37                          0.0653084               1.7771
        38                          0.0768490               2.0912
        39                          0.0851089               2.3159
       ...                                ...                  ...
        53                          0.6457596              17.5720
      -------------------------------------------------------------
                  HL-Gap            0.1593422 Eh            4.3359 eV

     #   Z          covCN         q      C6AA      α(0)
     1   7 N        2.688    -0.307    27.903     7.845
     2   6 C        3.731     0.005    20.583     6.476
     3   6 C        3.803    -0.077    21.966     6.672
     4   6 C        3.803    -0.057    21.600     6.617
     5   6 C        3.801    -0.106    22.520     6.756
     6   6 C        2.689     0.357    20.934     7.488
     7   8 O        1.659    -0.371    20.302     6.083
     8   8 O        0.856    -0.363    20.950     6.137
     9  17 Cl       0.838    -0.482   115.019    16.407
    10   1 H        0.860     0.168     1.283     1.774
    11   1 H        0.860     0.167     1.291     1.780
    12   1 H        0.894     0.333     0.622     1.234
    13   1 H        0.923     0.028     2.610     2.526
    14   1 H        0.924     0.057     2.237     2.339
    15   1 H        0.925     0.073     2.051     2.240
    16   1 H        0.924     0.041     2.432     2.439
    17   1 H        0.924     0.053     2.285     2.364
    18   1 H        0.924     0.040     2.451     2.448
    19   1 H        0.924     0.051     2.310     2.377
    20   1 H        0.925     0.068     2.111     2.272
    21   1 H        0.805     0.322     0.659     1.275

Wiberg/Mayer (AO) data.
largest (>0.10) Wiberg bond orders for each atom

     #   Z sym  total        # sym  WBO       # sym  WBO       # sym  WBO
 ---------------------------------------------------------------------------
     1   7 N    3.233 --     2 C    1.006    11 H    0.958    10 H    0.958
                            12 H    0.201
     2   6 C    3.974 --     3 C    1.007     1 N    1.006    14 H    0.974
                            13 H    0.971
     3   6 C    3.993 --     2 C    1.007     4 C    1.005    16 H    0.976
                            15 H    0.969
     4   6 C    3.994 --     3 C    1.005     5 C    0.988    17 H    0.976
                            18 H    0.974
     5   6 C    3.995 --     4 C    0.988    20 H    0.972     6 C    0.966
                            19 H    0.964
     6   6 C    3.917 --     8 O    1.804     7 O    1.118     5 C    0.966
     7   8 O    2.201 --     6 C    1.118    21 H    0.873     8 O    0.164
     8   8 O    2.078 --     6 C    1.804     7 O    0.164
     9  17 Cl   0.771 --    12 H    0.683
    10   1 H    0.971 --     1 N    0.958
    11   1 H    0.972 --     1 N    0.958
    12   1 H    0.889 --     9 Cl   0.683     1 N    0.201
    13   1 H    0.999 --     2 C    0.971
    14   1 H    0.997 --     2 C    0.974
    15   1 H    0.994 --     3 C    0.969
    16   1 H    0.998 --     3 C    0.976
    17   1 H    0.997 --     4 C    0.976
    18   1 H    0.998 --     4 C    0.974
    19   1 H    0.997 --     5 C    0.964
    20   1 H    0.995 --     5 C    0.972
    21   1 H    0.897 --     7 O    0.873
 ---------------------------------------------------------------------------

molecular dipole:
                 x           y           z       tot (Debye)
 q only:       -0.624      -1.606       0.142
   full:       -1.096      -1.629      -0.085       4.995

           -------------------------------------------------
          | TOTAL ENERGY              -32.428099430070 Eh   |
          | GRADIENT NORM               0.000420959962 Eh/α |
          | HOMO-LUMO GAP               4.335921490729 eV   |
           -------------------------------------------------

 * finished run on 2023/01/23 at 14:14:14.906
