   * xtb version 6.5.1 (fef0646) compiled by 'conda@b96dff2e9fd6' on 2023-01-04
          program call               : xtb init.xyz --opt -c 1 -u 0 -P 16 --input xtb.inp

   ID    Z sym.   atoms
    1    7 N      1
    2    6 C      2-19
    3   16 S      20-23
    4    1 H      24-39

          :  Hamiltonian                  GFN2-xTB          :
 * total energy  :   -62.1431148 Eh     change       -0.5047056E-09 Eh
 * total energy  :   -62.1495976 Eh     change       -0.6482878E-02 Eh
 * total energy  :   -62.1521015 Eh     change       -0.2503878E-02 Eh
 * total energy  :   -62.1531615 Eh     change       -0.1059957E-02 Eh
 * total energy  :   -62.1543470 Eh     change       -0.1185532E-02 Eh
 * total energy  :   -62.1553275 Eh     change       -0.9804476E-03 Eh
 * total energy  :   -62.1565603 Eh     change       -0.1232820E-02 Eh
 * total energy  :   -62.1577058 Eh     change       -0.1145565E-02 Eh
 * total energy  :   -62.1585129 Eh     change       -0.8071017E-03 Eh
 * total energy  :   -62.1590255 Eh     change       -0.5125403E-03 Eh
 * total energy  :   -62.1608126 Eh     change       -0.2898247E-04 Eh
 * total energy  :   -62.1608504 Eh     change       -0.3777203E-04 Eh
 * total energy  :   -62.1608850 Eh     change       -0.3464022E-04 Eh
 * total energy  :   -62.1609229 Eh     change       -0.3791423E-04 Eh
 * total energy  :   -62.1609360 Eh     change       -0.1305180E-04 Eh
 * total energy  :   -62.1609500 Eh     change       -0.1401955E-04 Eh
 * total energy  :   -62.1609554 Eh     change       -0.5420821E-05 Eh
 * total energy  :   -62.1609608 Eh     change       -0.5426236E-05 Eh
 * total energy  :   -62.1609638 Eh     change       -0.2951548E-05 Eh
   *** GEOMETRY OPTIMIZATION CONVERGED AFTER 37 ITERATIONS ***

 final structure:
================
39
 xtb: 6.5.1 (fef0646)
N            3.31624943695244       -1.67785697749916        1.48544029494736
C            2.64332883410824       -0.90330892423942        0.40593248008453
C            3.60242284474065        0.17974140834863       -0.09895876210663
C            4.82625716690953       -0.42843221720002       -0.69889232778223
C            5.13288254750071       -0.62827285214946       -2.00784558144253
C            6.34615998722172       -1.31188636780058       -2.20933270535560
C            6.99052420258669       -1.66378459240362       -1.05174877984149
C            8.21620481943451       -2.35147470597665       -0.87443173897570
C            8.86513164438005       -2.66408460191884        0.30238210052611
C           10.06556276846566       -3.34066462095079        0.10918092390988
C           10.36301435211874       -3.56325371733969       -1.22300303516084
C           11.50106977713247       -4.21634918044662       -1.76370302724378
C           12.55878628047869       -4.78346632039775       -1.07972002841910
C           13.51993680292443       -5.34493428064962       -1.91717131126471
C           13.22229031051008       -5.22048003942275       -3.25844414159337
C           13.98389254523896       -5.67643984539398       -4.37017577051921
C           13.70363241546055       -5.54054874407902       -5.70911571714611
C           14.68372904490677       -6.11341528803885       -6.53523279509876
C           15.70021666982012       -6.68063702005816       -5.82891306124432
S           15.48608380457419       -6.52901357373615       -4.13553051368570
S           11.71548888280846       -4.38993230457387       -3.48560111380768
S            9.12364698048654       -2.91722875761452       -2.25296070690121
S            6.08674475682957       -1.09762861881787        0.33692711135767
H            2.82560378713183       -2.54907454360020        1.70667792499069
H            3.39710673719502       -1.11087004442530        2.33676012436262
H            4.30036440313079       -1.87809601932721        1.15281389723849
H            1.72259650553863       -0.46375003815249        0.78951986207749
H            2.40093532142022       -1.58712993869902       -0.40860585081578
H            3.86819317830675        0.84808610160025        0.72286418354208
H            3.09066779478815        0.77019292395554       -0.85865357669490
H            4.51016387088313       -0.28826219687243       -2.81557372228397
H            6.75098944326720       -1.54331355937260       -3.17718896793169
H            8.47714253852436       -2.39891328376205        1.27160424495617
H           10.70428426184336       -3.65791691886889        0.91201830965894
H           12.63062759011192       -4.78874585435228       -0.00741352587125
H           14.41405557427978       -5.83060039695326       -1.56850064688838
H           12.82100883602779       -5.04384147868631       -6.07287518170481
H           14.63901184694029       -6.10631610767452       -7.60921261312238
H           16.57010143501849       -7.18246650245394       -6.20356625474867

          :  Hamiltonian                  GFN2-xTB          :
         :: total energy             -62.160963775265 Eh    ::
         :: gradient norm              0.000901067040 Eh/a0 ::
         :: HOMO-LUMO gap              1.392200513836 eV    ::
         :: SCC energy               -63.091247433717 Eh    ::
         :: -> dispersion             -0.048419369110 Eh    ::
         :: repulsion energy           0.930968195736 Eh    ::

    * Orbital Energies and Occupations

         #    Occupation            Energy/Eh            Energy/eV
      -------------------------------------------------------------
         1        2.0000           -0.8706373             -23.6912
       ...           ...                  ...                  ...
        46        2.0000           -0.5298446             -14.4178
        47        2.0000           -0.5266674             -14.3313
        48        2.0000           -0.5233616             -14.2414
        49        2.0000           -0.5217686             -14.1980
        50        2.0000           -0.5149884             -14.0135
        51        2.0000           -0.5146744             -14.0050
        52        2.0000           -0.5088814             -13.8474
        53        2.0000           -0.4956220             -13.4866
        54        2.0000           -0.4827449             -13.1362
        55        2.0000           -0.4715497             -12.8315
        56        2.0000           -0.4620017             -12.5717
        57        2.0000           -0.4591393             -12.4938
        58        2.0000           -0.4302105             -11.7066 (HOMO)
        59                         -0.3790481             -10.3144 (LUMO)
        60                         -0.3450895              -9.3904
        61                         -0.3351193              -9.1191
        62                         -0.3142890              -8.5522
        63                         -0.3000419              -8.1646
        64                         -0.2880934              -7.8394
        65                         -0.2705313              -7.3615
        66                         -0.2678155              -7.2876
        67                         -0.2604315              -7.0867
        68                         -0.2538525              -6.9077
        69                         -0.2490015              -6.7757
       ...                                ...                  ...
       128                          0.6380717              17.3628
      -------------------------------------------------------------
                  HL-Gap            0.0511624 Eh            1.3922 eV

     #   Z          covCN         q      C6AA      α(0)
     1   7 N        3.482    -0.149    24.206     7.307
     2   6 C        3.733    -0.030    21.204     6.573
     3   6 C        3.822    -0.086    22.119     6.693
     4   6 C        2.983    -0.009    28.226     8.715
     5   6 C        3.090    -0.042    28.941     8.818
     6   6 C        3.105    -0.053    29.180     8.851
     7   6 C        3.017     0.035    27.206     8.556
     8   6 C        3.025     0.006    27.860     8.658
     9   6 C        3.091    -0.042    28.937     8.817
    10   6 C        3.095    -0.052    29.160     8.850
    11   6 C        3.021     0.032    27.270     8.566
    12   6 C        3.024     0.014    27.673     8.629
    13   6 C        3.092    -0.041    28.898     8.811
    14   6 C        3.098    -0.048    29.057     8.834
    15   6 C        3.022     0.030    27.298     8.570
    16   6 C        3.026     0.015    27.652     8.626
    17   6 C        3.106    -0.044    28.949     8.816
    18   6 C        3.107    -0.039    28.814     8.795
    19   6 C        2.942    -0.014    28.373     8.736
    20  16 S        2.323     0.003   140.953    19.982
    21  16 S        2.365    -0.016   141.709    20.036
    22  16 S        2.364    -0.013   141.600    20.028
    23  16 S        2.360    -0.115   145.858    20.327
    24   1 H        0.859     0.262     0.840     1.436
    25   1 H        0.859     0.266     0.825     1.423
    26   1 H        0.880     0.285     0.758     1.363
    27   1 H        0.925     0.102     1.764     2.077
    28   1 H        0.924     0.105     1.737     2.061
    29   1 H        0.924     0.076     2.025     2.225
    30   1 H        0.925     0.097     1.817     2.108
    31   1 H        0.926     0.054     2.266     2.354
    32   1 H        0.926     0.060     2.203     2.321
    33   1 H        0.926     0.040     2.443     2.444
    34   1 H        0.926     0.050     2.325     2.384
    35   1 H        0.926     0.048     2.342     2.393
    36   1 H        0.926     0.056     2.242     2.341
    37   1 H        0.926     0.048     2.340     2.392
    38   1 H        0.926     0.051     2.311     2.377
    39   1 H        0.926     0.058     2.223     2.331

Wiberg/Mayer (AO) data.
largest (>0.10) Wiberg bond orders for each atom

     #   Z sym  total        # sym  WBO       # sym  WBO       # sym  WBO
 ---------------------------------------------------------------------------
     1   7 N    3.659 --     2 C    0.940    24 H    0.917    25 H    0.914
                            26 H    0.828
     2   6 C    3.900 --     3 C    0.991    28 H    0.968    27 H    0.968
                             1 N    0.940
     3   6 C    3.982 --     4 C    1.022     2 C    0.991    29 H    0.964
                            30 H    0.957
     4   6 C    3.892 --     5 C    1.594    23 S    1.088     3 C    1.022
     5   6 C    3.987 --     4 C    1.594     6 C    1.291    31 H    0.960
     6   6 C    3.959 --     7 C    1.507     5 C    1.291    32 H    0.957
     7   6 C    3.941 --     6 C    1.507     8 C    1.191    23 S    1.070
     8   6 C    3.923 --     9 C    1.441     7 C    1.191    22 S    1.110
     9   6 C    3.984 --     8 C    1.441    10 C    1.377    33 H    0.961
    10   6 C    3.966 --    11 C    1.430     9 C    1.377    34 H    0.962
    11   6 C    3.940 --    10 C    1.430    12 C    1.193    22 S    1.147
    12   6 C    3.934 --    13 C    1.438    11 C    1.193    21 S    1.123
    13   6 C    3.970 --    12 C    1.438    14 C    1.371    35 H    0.962
    14   6 C    3.979 --    15 C    1.449    13 C    1.371    36 H    0.960
    15   6 C    3.931 --    14 C    1.449    16 C    1.176    21 S    1.142
    16   6 C    3.950 --    17 C    1.486    15 C    1.176    20 S    1.125
    17   6 C    3.967 --    16 C    1.486    18 C    1.316    37 H    0.961
    18   6 C    3.984 --    19 C    1.586    17 C    1.316    38 H    0.964
    19   6 C    3.923 --    18 C    1.586    20 S    1.214    39 H    0.969
    20  16 S    2.625 --    19 C    1.214    16 C    1.125
    21  16 S    2.591 --    15 C    1.142    12 C    1.123
    22  16 S    2.580 --    11 C    1.147     8 C    1.110
    23  16 S    2.540 --     4 C    1.088     7 C    1.070
    24   1 H    0.931 --     1 N    0.917
    25   1 H    0.929 --     1 N    0.914
    26   1 H    0.918 --     1 N    0.828
    27   1 H    0.988 --     2 C    0.968
    28   1 H    0.989 --     2 C    0.968
    29   1 H    0.993 --     3 C    0.964
    30   1 H    0.990 --     3 C    0.957
    31   1 H    0.997 --     5 C    0.960
    32   1 H    0.996 --     6 C    0.957
    33   1 H    0.998 --     9 C    0.961
    34   1 H    0.997 --    10 C    0.962
    35   1 H    0.997 --    13 C    0.962
    36   1 H    0.996 --    14 C    0.960
    37   1 H    0.998 --    17 C    0.961
    38   1 H    0.997 --    18 C    0.964
    39   1 H    0.996 --    19 C    0.969
 ---------------------------------------------------------------------------

molecular dipole:
                 x           y           z       tot (Debye)
 q only:        8.793      -3.941       0.921
   full:        9.285      -4.050       0.809      25.830

           -------------------------------------------------
          | TOTAL ENERGY              -62.160963775265 Eh   |
          | GRADIENT NORM               0.000901067040 Eh/α |
          | HOMO-LUMO GAP               1.392200513836 eV   |
           -------------------------------------------------

 * finished run on 2023/01/23 at 19:32:46.973
