   * xtb version 6.5.1 (fef0646) compiled by 'conda@b96dff2e9fd6' on 2023-01-04
          program call               : xtb init.xyz --opt -c 1 -u 0 -P 16 --alpb water

   ID    Z sym.   atoms
    1    7 N      1
    2    6 C      2-19
    3   16 S      20-23
    4    1 H      24-39

      * Solvation model:               ALPB
        Solvent                        water
        Solvent mass                       1.8000E+01 g/mol
          :  Hamiltonian                  GFN2-xTB          :
 * total energy  :   -62.2487608 Eh     change       -0.1928804E-08 Eh
 * total energy  :   -62.2547098 Eh     change       -0.5948960E-02 Eh
 * total energy  :   -62.2566987 Eh     change       -0.1988916E-02 Eh
 * total energy  :   -62.2574259 Eh     change       -0.7272414E-03 Eh
 * total energy  :   -62.2582083 Eh     change       -0.7823555E-03 Eh
 * total energy  :   -62.2588092 Eh     change       -0.6009154E-03 Eh
 * total energy  :   -62.2596058 Eh     change       -0.7965727E-03 Eh
 * total energy  :   -62.2603789 Eh     change       -0.7731714E-03 Eh
 * total energy  :   -62.2610112 Eh     change       -0.6322703E-03 Eh
 * total energy  :   -62.2614919 Eh     change       -0.4806882E-03 Eh
 * total energy  :   -62.2637518 Eh     change       -0.2184557E-04 Eh
 * total energy  :   -62.2638015 Eh     change       -0.4969377E-04 Eh
 * total energy  :   -62.2638207 Eh     change       -0.1919672E-04 Eh
 * total energy  :   -62.2638697 Eh     change       -0.4905015E-04 Eh
 * total energy  :   -62.2638866 Eh     change       -0.1683378E-04 Eh
 * total energy  :   -62.2638933 Eh     change       -0.6735241E-05 Eh
 * total energy  :   -62.2639015 Eh     change       -0.8141934E-05 Eh
 * total energy  :   -62.2639077 Eh     change       -0.6257658E-05 Eh
 * total energy  :   -62.2639113 Eh     change       -0.3555059E-05 Eh
   *** GEOMETRY OPTIMIZATION CONVERGED AFTER 36 ITERATIONS ***

 final structure:
================
39
 xtb: 6.5.1 (fef0646)
N            3.20583216118481       -1.56894662598470        1.78219909825725
C            2.63691740316122       -1.03924800020550        0.52404377060688
C            3.58006567251837       -0.01171202225590       -0.10690890055916
C            4.80961042440946       -0.63449546931395       -0.67781437179898
C            5.16836179060702       -0.75571987920373       -1.98618778303580
C            6.39954274269958       -1.41162954025438       -2.17489079629761
C            6.99910637900835       -1.80290599433023       -1.00567509998328
C            8.23062162629104       -2.48892194773175       -0.81047513503286
C            8.83147780420694       -2.84357479323141        0.37496586289786
C           10.04882706408406       -3.50759962699467        0.20024343520394
C           10.39674281906257       -3.67402299970159       -1.12140381423804
C           11.55263461660226       -4.30482389551376       -1.66095380312992
C           12.60467277206786       -4.88392783392754       -0.98797321698220
C           13.57597345927776       -5.42173868188134       -1.83743170113078
C           13.28794066188171       -5.26598924536795       -3.17243015624365
C           14.04699497201526       -5.69113299135927       -4.30002522878670
C           13.75633122487515       -5.54017983744666       -5.63214627843045
C           14.73939259642805       -6.08792974096651       -6.47673158089674
C           15.76884101935073       -6.65016350608561       -5.79088061938077
S           15.56275088945007       -6.52543261356104       -4.08893678993369
S           11.77790688384413       -4.43112433858086       -3.38607607264316
S            9.19381547363783       -2.99189468650925       -2.17672025513932
S            6.03145336833734       -1.33867642621740        0.35120961195258
H            2.59413631207863       -2.28411219217462        2.18966336126301
H            3.33557586635077       -0.81161950424208        2.46237639051345
H            4.13166257510496       -1.98251375323598        1.59680765212030
H            1.68113412273351       -0.56156512836911        0.73461849075245
H            2.47513921373572       -1.86105756979659       -0.17262935659130
H            3.86089979125190        0.73530522723094        0.63641995693553
H            3.05584224900605        0.49842184612243       -0.91389965679322
H            4.57558069758686       -0.38508252881927       -2.80265019882387
H            6.84873631915646       -1.59771194338751       -3.13475504209321
H            8.40725683894384       -2.62760981972911        1.33954060486785
H           10.65936232097240       -3.85768104521635        1.01166006144202
H           12.67137522196160       -4.91730018061602        0.08345748124903
H           14.46932197396834       -5.91487771655839       -1.49709345128021
H           12.86422244465505       -5.05254941901425       -5.98178383507574
H           14.68367842075578       -6.06410958539173       -7.54957317214560
H           16.64380180674066       -7.13465599017807       -6.17409946161532

          :  Hamiltonian                  GFN2-xTB          :
         :: total energy             -62.263911269393 Eh    ::
         :: gradient norm              0.000759380716 Eh/a0 ::
         :: HOMO-LUMO gap              1.771432757934 eV    ::
         :: SCC energy               -63.201212006484 Eh    ::
         :: -> dispersion             -0.048236536556 Eh    ::
         :: -> Gsolv                  -0.122210267235 Eh    ::
         :: repulsion energy           0.938003901236 Eh    ::

    * Orbital Energies and Occupations

         #    Occupation            Energy/Eh            Energy/eV
      -------------------------------------------------------------
         1        2.0000           -0.7414897             -20.1770
       ...           ...                  ...                  ...
        46        2.0000           -0.4548103             -12.3760
        47        2.0000           -0.4530921             -12.3293
        48        2.0000           -0.4503589             -12.2549
        49        2.0000           -0.4494656             -12.2306
        50        2.0000           -0.4490016             -12.2180
        51        2.0000           -0.4417470             -12.0205
        52        2.0000           -0.4166013             -11.3363
        53        2.0000           -0.4090066             -11.1296
        54        2.0000           -0.4048346             -11.0161
        55        2.0000           -0.4039667             -10.9925
        56        2.0000           -0.4025492             -10.9539
        57        2.0000           -0.3856945             -10.4953
        58        2.0000           -0.3601598              -9.8004 (HOMO)
        59                         -0.2950609              -8.0290 (LUMO)
        60                         -0.2663396              -7.2475
        61                         -0.2374876              -6.4624
        62                         -0.2319898              -6.3128
        63                         -0.2182972              -5.9402
        64                         -0.2102243              -5.7205
        65                         -0.2092490              -5.6940
        66                         -0.1946924              -5.2978
        67                         -0.1876911              -5.1073
        68                         -0.1674702              -4.5571
        69                         -0.1565301              -4.2594
       ...                                ...                  ...
       128                          0.6996154              19.0375
      -------------------------------------------------------------
                  HL-Gap            0.0650990 Eh            1.7714 eV

     #   Z          covCN         q      C6AA      α(0)
     1   7 N        3.485    -0.163    24.525     7.355
     2   6 C        3.732    -0.041    21.409     6.604
     3   6 C        3.822    -0.096    22.310     6.722
     4   6 C        2.983     0.027    27.405     8.587
     5   6 C        3.110    -0.059    29.306     8.869
     6   6 C        3.122    -0.052    29.110     8.836
     7   6 C        3.018     0.009    27.794     8.648
     8   6 C        3.030     0.023    27.471     8.597
     9   6 C        3.090    -0.057    29.306     8.873
    10   6 C        3.095    -0.054    29.219     8.859
    11   6 C        3.022     0.018    27.580     8.614
    12   6 C        3.025     0.019    27.554     8.610
    13   6 C        3.094    -0.055    29.245     8.863
    14   6 C        3.101    -0.053    29.181     8.852
    15   6 C        3.021     0.018    27.573     8.613
    16   6 C        3.026     0.017    27.611     8.619
    17   6 C        3.108    -0.055    29.209     8.855
    18   6 C        3.108    -0.048    29.032     8.828
    19   6 C        2.940    -0.024    28.597     8.771
    20  16 S        2.327    -0.044   142.893    20.119
    21  16 S        2.381    -0.060   143.551    20.165
    22  16 S        2.370    -0.070   143.967    20.195
    23  16 S        2.377    -0.027   142.186    20.069
    24   1 H        0.859     0.321     0.654     1.267
    25   1 H        0.859     0.315     0.670     1.283
    26   1 H        0.859     0.303     0.703     1.313
    27   1 H        0.925     0.126     1.566     1.957
    28   1 H        0.925     0.116     1.643     2.004
    29   1 H        0.924     0.106     1.730     2.057
    30   1 H        0.925     0.095     1.831     2.116
    31   1 H        0.926     0.050     2.318     2.381
    32   1 H        0.926     0.025     2.655     2.548
    33   1 H        0.926     0.069     2.093     2.262
    34   1 H        0.926     0.045     2.379     2.412
    35   1 H        0.926     0.051     2.309     2.376
    36   1 H        0.926     0.048     2.344     2.394
    37   1 H        0.926     0.047     2.353     2.399
    38   1 H        0.926     0.051     2.313     2.378
    39   1 H        0.927     0.059     2.214     2.327

Wiberg/Mayer (AO) data.
largest (>0.10) Wiberg bond orders for each atom

     #   Z sym  total        # sym  WBO       # sym  WBO       # sym  WBO
 ---------------------------------------------------------------------------
     1   7 N    3.649 --     2 C    0.973    25 H    0.885    24 H    0.883
                            26 H    0.874
     2   6 C    3.926 --     3 C    0.994     1 N    0.973    28 H    0.965
                            27 H    0.961
     3   6 C    3.983 --     4 C    1.026     2 C    0.994    30 H    0.959
                            29 H    0.951
     4   6 C    3.921 --     5 C    1.579    23 S    1.144     3 C    1.026
     5   6 C    3.985 --     4 C    1.579     6 C    1.298    31 H    0.962
     6   6 C    3.971 --     7 C    1.510     5 C    1.298    32 H    0.961
     7   6 C    3.955 --     6 C    1.510     8 C    1.166    23 S    1.108
     8   6 C    3.920 --     9 C    1.473     7 C    1.166    22 S    1.116
     9   6 C    3.980 --     8 C    1.473    10 C    1.343    33 H    0.959
    10   6 C    3.970 --    11 C    1.466     9 C    1.343    34 H    0.963
    11   6 C    3.937 --    10 C    1.466    12 C    1.172    22 S    1.125
    12   6 C    3.935 --    13 C    1.466    11 C    1.172    21 S    1.124
    13   6 C    3.971 --    12 C    1.466    14 C    1.343    35 H    0.962
    14   6 C    3.985 --    15 C    1.478    13 C    1.343    36 H    0.960
    15   6 C    3.930 --    14 C    1.478    16 C    1.164    21 S    1.120
    16   6 C    3.951 --    17 C    1.505    15 C    1.164    20 S    1.121
    17   6 C    3.969 --    16 C    1.505    18 C    1.300    37 H    0.961
    18   6 C    3.986 --    19 C    1.605    17 C    1.300    38 H    0.963
    19   6 C    3.922 --    18 C    1.605    20 S    1.191    39 H    0.969
    20  16 S    2.595 --    19 C    1.191    16 C    1.121
    21  16 S    2.563 --    12 C    1.124    15 C    1.120
    22  16 S    2.561 --    11 C    1.125     8 C    1.116
    23  16 S    2.572 --     4 C    1.144     7 C    1.108
    24   1 H    0.897 --     1 N    0.883
    25   1 H    0.901 --     1 N    0.885
    26   1 H    0.908 --     1 N    0.874
    27   1 H    0.983 --     2 C    0.961
    28   1 H    0.986 --     2 C    0.965
    29   1 H    0.987 --     3 C    0.951
    30   1 H    0.991 --     3 C    0.959
    31   1 H    0.997 --     5 C    0.962
    32   1 H    0.999 --     6 C    0.961
    33   1 H    0.994 --     9 C    0.959
    34   1 H    0.998 --    10 C    0.963
    35   1 H    0.997 --    13 C    0.962
    36   1 H    0.997 --    14 C    0.960
    37   1 H    0.998 --    17 C    0.961
    38   1 H    0.997 --    18 C    0.963
    39   1 H    0.996 --    19 C    0.969
 ---------------------------------------------------------------------------

molecular dipole:
                 x           y           z       tot (Debye)
 q only:        4.965      -2.303       3.672
   full:        6.136      -2.653       2.982      18.604

           -------------------------------------------------
          | TOTAL ENERGY              -62.263911269393 Eh   |
          | GRADIENT NORM               0.000759380716 Eh/α |
          | HOMO-LUMO GAP               1.771432757934 eV   |
           -------------------------------------------------

 * finished run on 2023/01/24 at 15:42:06.437
