   * xtb version 6.5.1 (fef0646) compiled by 'conda@b96dff2e9fd6' on 2023-01-04
          program call               : xtb init.xyz --opt -c 1 -u 0 -P 16 --alpb water

   ID    Z sym.   atoms
    1    7 N      1
    2    6 C      2-7, 9, 10
    3   17 Cl     8
    4    1 H      11-21

      * Solvation model:               ALPB
        Solvent                        water
        Solvent mass                       1.8000E+01 g/mol
          :  Hamiltonian                  GFN2-xTB          :
 * total energy  :   -29.8850679 Eh     change       -0.1906372E-08 Eh
 * total energy  :   -29.8872151 Eh     change       -0.2147185E-02 Eh
 * total energy  :   -29.8875635 Eh     change       -0.3483158E-03 Eh
 * total energy  :   -29.8876402 Eh     change       -0.7671861E-04 Eh
 * total energy  :   -29.8876741 Eh     change       -0.3393625E-04 Eh
 * total energy  :   -29.8876926 Eh     change       -0.1851724E-04 Eh
 * total energy  :   -29.8877147 Eh     change       -0.2209139E-04 Eh
 * total energy  :   -29.8877582 Eh     change       -0.4349412E-04 Eh
 * total energy  :   -29.8878020 Eh     change       -0.4374461E-04 Eh
 * total energy  :   -29.8878309 Eh     change       -0.2893715E-04 Eh
 * total energy  :   -29.8879396 Eh     change       -0.1732575E-04 Eh
 * total energy  :   -29.8879553 Eh     change       -0.1568830E-04 Eh
 * total energy  :   -29.8879719 Eh     change       -0.1660624E-04 Eh
 * total energy  :   -29.8879903 Eh     change       -0.1846986E-04 Eh
 * total energy  :   -29.8880062 Eh     change       -0.1591071E-04 Eh
 * total energy  :   -29.8880175 Eh     change       -0.1128745E-04 Eh
 * total energy  :   -29.8880261 Eh     change       -0.8604758E-05 Eh
 * total energy  :   -29.8880338 Eh     change       -0.7669931E-05 Eh
 * total energy  :   -29.8880385 Eh     change       -0.4658251E-05 Eh
   *** GEOMETRY OPTIMIZATION CONVERGED AFTER 22 ITERATIONS ***

 final structure:
================
21
 xtb: 6.5.1 (fef0646)
N            2.86205079425651       -0.18720757491513        3.77329787448084
C            2.49301161975874       -1.01733733633202        2.60142731547629
C            3.04208268002050       -0.38740362388701        1.32245903877480
C            4.54839408911834       -0.35897956625379        1.32195662101841
C            5.27084173450319       -1.53890579433113        1.17807688457327
C            6.65376988044458       -1.53110311852183        1.18908750256119
C            7.32347702258908       -0.32835130800274        1.34480140454280
Cl           9.07888688330893       -0.30912948296540        1.34304365401037
C            6.62690535046437        0.85834391233786        1.48897595669731
C            5.24198716602606        0.83459038252637        1.48170034265272
H            2.54672682166661       -0.62363221722078        4.64650048056449
H            2.44013546439660        0.74574175593722        3.69716491561801
H            3.88266628245663       -0.07530805181198        3.80585858027745
H            1.40812206784021       -1.09148465692441        2.54071486293377
H            2.90972090879082       -2.01565701243909        2.72890051697896
H            2.65487068268419        0.62383971699324        1.20452535149858
H            2.69677837242397       -0.97569777864650        0.47302039666871
H            4.75482103215728       -2.47622757499356        1.03939342821307
H            7.21155861937278       -2.44567599621429        1.07065309219845
H            7.16231429891556        1.78683688494298        1.60097363518503
H            4.70802822880506        1.76734844072175        1.57828814507541

          :  Hamiltonian                  GFN2-xTB          :
         :: total energy             -29.888038460281 Eh    ::
         :: gradient norm              0.000229590382 Eh/a0 ::
         :: HOMO-LUMO gap              4.403094886016 eV    ::
         :: SCC energy               -30.328280964788 Eh    ::
         :: -> dispersion             -0.016655080287 Eh    ::
         :: -> Gsolv                  -0.129193325529 Eh    ::
         :: repulsion energy           0.440160900350 Eh    ::

    * Orbital Energies and Occupations

         #    Occupation            Energy/Eh            Energy/eV
      -------------------------------------------------------------
         1        2.0000           -1.0658695             -29.0038
       ...           ...                  ...                  ...
        15        2.0000           -0.5082557             -13.8303
        16        2.0000           -0.5022622             -13.6672
        17        2.0000           -0.4936910             -13.4340
        18        2.0000           -0.4862304             -13.2310
        19        2.0000           -0.4854130             -13.2088
        20        2.0000           -0.4741078             -12.9011
        21        2.0000           -0.4583573             -12.4725
        22        2.0000           -0.4460960             -12.1389
        23        2.0000           -0.4382980             -11.9267
        24        2.0000           -0.4360891             -11.8666
        25        2.0000           -0.4208755             -11.4526
        26        2.0000           -0.4161814             -11.3249
        27        2.0000           -0.3978494             -10.8260 (HOMO)
        28                         -0.2360386              -6.4229 (LUMO)
        29                         -0.2347683              -6.3884
        30                         -0.1357725              -3.6946
        31                         -0.1095037              -2.9797
        32                         -0.0433320              -1.1791
        33                          0.0115948               0.3155
        34                          0.0150651               0.4099
        35                          0.0151607               0.4125
        36                          0.0268482               0.7306
        37                          0.0617319               1.6798
        38                          0.0801229               2.1803
       ...                                ...                  ...
        56                          0.6403209              17.4240
      -------------------------------------------------------------
                  HL-Gap            0.1618108 Eh            4.4031 eV

     #   Z          covCN         q      C6AA      α(0)
     1   7 N        3.485    -0.156    24.362     7.331
     2   6 C        3.733    -0.039    21.363     6.597
     3   6 C        3.809    -0.099    22.375     6.733
     4   6 C        2.968     0.015    27.677     8.629
     5   6 C        2.927    -0.042    29.036     8.837
     6   6 C        2.945    -0.041    29.023     8.836
     7   6 C        2.889     0.103    25.728     8.316
     8  17 Cl       0.950    -0.261   107.448    15.858
     9   6 C        2.945    -0.043    29.065     8.842
    10   6 C        2.927    -0.047    29.175     8.858
    11   1 H        0.859     0.317     0.664     1.277
    12   1 H        0.859     0.311     0.682     1.294
    13   1 H        0.859     0.295     0.728     1.337
    14   1 H        0.925     0.121     1.606     1.982
    15   1 H        0.925     0.113     1.671     2.021
    16   1 H        0.925     0.089     1.889     2.149
    17   1 H        0.925     0.092     1.858     2.131
    18   1 H        0.926     0.076     2.024     2.225
    19   1 H        0.926     0.056     2.250     2.346
    20   1 H        0.926     0.059     2.206     2.322
    21   1 H        0.926     0.081     1.965     2.192

Wiberg/Mayer (AO) data.
largest (>0.10) Wiberg bond orders for each atom

     #   Z sym  total        # sym  WBO       # sym  WBO       # sym  WBO
 ---------------------------------------------------------------------------
     1   7 N    3.656 --     2 C    0.966    13 H    0.894    12 H    0.888
                            11 H    0.886
     2   6 C    3.925 --     3 C    0.999     1 N    0.966    15 H    0.964
                            14 H    0.964
     3   6 C    3.986 --     4 C    1.011     2 C    0.999    16 H    0.967
                            17 H    0.955
     4   6 C    3.987 --    10 C    1.413     5 C    1.403     3 C    1.011
     5   6 C    3.985 --     6 C    1.447     4 C    1.403    18 H    0.964
                             9 C    0.111
     6   6 C    3.986 --     5 C    1.447     7 C    1.404    19 H    0.967
                            10 C    0.108
     7   6 C    3.880 --     9 C    1.413     6 C    1.404     8 Cl   0.921
     8  17 Cl   1.039 --     7 C    0.921
     9   6 C    3.984 --    10 C    1.434     7 C    1.413    20 H    0.967
                             5 C    0.111
    10   6 C    3.983 --     9 C    1.434     4 C    1.413    21 H    0.962
                             6 C    0.108
    11   1 H    0.899 --     1 N    0.886
    12   1 H    0.903 --     1 N    0.888
    13   1 H    0.913 --     1 N    0.894
    14   1 H    0.985 --     2 C    0.964
    15   1 H    0.987 --     2 C    0.964
    16   1 H    0.992 --     3 C    0.967
    17   1 H    0.991 --     3 C    0.955
    18   1 H    0.994 --     5 C    0.964
    19   1 H    0.997 --     6 C    0.967
    20   1 H    0.996 --     9 C    0.967
    21   1 H    0.993 --    10 C    0.962
 ---------------------------------------------------------------------------

molecular dipole:
                 x           y           z       tot (Debye)
 q only:        3.488      -0.485       6.857
   full:        4.437      -0.435       6.810      20.690

           -------------------------------------------------
          | TOTAL ENERGY              -29.888038460281 Eh   |
          | GRADIENT NORM               0.000229590382 Eh/α |
          | HOMO-LUMO GAP               4.403094886016 eV   |
           -------------------------------------------------

 * finished run on 2023/01/24 at 14:57:40.163
