   * xtb version 6.5.1 (fef0646) compiled by 'conda@b96dff2e9fd6' on 2023-01-04
          program call               : xtb init.xyz --opt -c 0 -u 0 -P 16

   ID    Z sym.   atoms
    1    7 N      1
    2    6 C      2-9
    3   17 Cl     10
    4    1 H      11-22

          :  Hamiltonian                  GFN2-xTB          :
 * total energy  :   -30.6210270 Eh     change       -0.7695533E-10 Eh
 * total energy  :   -30.6317582 Eh     change       -0.1073119E-01 Eh
 * total energy  :   -30.6390255 Eh     change       -0.7267341E-02 Eh
 * total energy  :   -30.6406021 Eh     change       -0.1576627E-02 Eh
 * total energy  :   -30.6424778 Eh     change       -0.1875676E-02 Eh
 * total energy  :   -30.6449453 Eh     change       -0.2467460E-02 Eh
 * total energy  :   -30.6481029 Eh     change       -0.3157631E-02 Eh
 * total energy  :   -30.6519113 Eh     change       -0.3808387E-02 Eh
 * total energy  :   -30.6566244 Eh     change       -0.4713139E-02 Eh
 * total energy  :   -30.6622146 Eh     change       -0.5590201E-02 Eh
 * total energy  :   -30.7043194 Eh     change       -0.1730280E-04 Eh
 * total energy  :   -30.7043306 Eh     change       -0.1114470E-04 Eh
 * total energy  :   -30.7043418 Eh     change       -0.1120241E-04 Eh
 * total energy  :   -30.7043566 Eh     change       -0.1488844E-04 Eh
 * total energy  :   -30.7043764 Eh     change       -0.1975884E-04 Eh
 * total energy  :   -30.7043959 Eh     change       -0.1950317E-04 Eh
 * total energy  :   -30.7044033 Eh     change       -0.7425837E-05 Eh
 * total energy  :   -30.7044056 Eh     change       -0.2230460E-05 Eh
 * total energy  :   -30.7044106 Eh     change       -0.4985480E-05 Eh
   *** GEOMETRY OPTIMIZATION CONVERGED AFTER 51 ITERATIONS ***

 final structure:
================
22
 xtb: 6.5.1 (fef0646)
N            2.76728550528591       -0.61598312649168       -0.91176854573374
C            1.90599267436045        0.21501480416287       -0.06172374902913
C            0.52985701726756        0.46841878855739       -0.68750652779910
C            2.62101342938152        1.51071617599042        0.24410394113842
C            2.99590888645285        1.81137608552632        1.54589473835065
C            3.65498781664936        2.99293574999459        1.83430263878810
C            3.94980492796567        3.88879804696447        0.82167890016299
C            3.58265561785801        3.59635708815636       -0.48024044584145
C            2.92319648251659        2.41499022213835       -0.76634359003573
Cl           5.28373732435912       -1.09410423984209        0.50739402059243
H            4.10709773645180       -0.87676700314179       -0.15830203196760
H            2.98796480609621       -0.13670645301081       -1.77864026565479
H            2.31917534096265       -1.49983687572016       -1.12796199685888
H            1.76991286384478       -0.33955962108725        0.87333380884222
H            0.62704312831330        0.95408343417871       -1.65584221691290
H           -0.05876517499295        1.11243363856822       -0.04009822532009
H           -0.00489034383985       -0.46970723243817       -0.82129384458464
H            2.77615946485397        1.11161241272283        2.33839016777424
H            3.94415819032307        3.21225575950433        2.85134250852812
H            4.46642535140560        4.81041300885378        1.04472414861116
H            3.81180904923778        4.28951602795648       -1.27643554903688
H            2.64401990525547        2.20272330843013       -1.78904788402032

          :  Hamiltonian                  GFN2-xTB          :
         :: total energy             -30.704410551869 Eh    ::
         :: gradient norm              0.000911566786 Eh/a0 ::
         :: HOMO-LUMO gap              4.391687078801 eV    ::
         :: SCC energy               -31.148860046343 Eh    ::
         :: -> dispersion             -0.018776129626 Eh    ::
         :: repulsion energy           0.444267280480 Eh    ::

    * Orbital Energies and Occupations

         #    Occupation            Energy/Eh            Energy/eV
      -------------------------------------------------------------
         1        2.0000           -1.0138142             -27.5873
       ...           ...                  ...                  ...
        16        2.0000           -0.4942514             -13.4493
        17        2.0000           -0.4834752             -13.1560
        18        2.0000           -0.4809889             -13.0884
        19        2.0000           -0.4779423             -13.0055
        20        2.0000           -0.4715038             -12.8303
        21        2.0000           -0.4572298             -12.4419
        22        2.0000           -0.4289303             -11.6718
        23        2.0000           -0.4256268             -11.5819
        24        2.0000           -0.4080553             -11.1038
        25        2.0000           -0.4068536             -11.0710
        26        2.0000           -0.3960782             -10.7778
        27        2.0000           -0.3909535             -10.6384
        28        2.0000           -0.3907114             -10.6318 (HOMO)
        29                         -0.2293198              -6.2401 (LUMO)
        30                         -0.2262492              -6.1566
        31                         -0.0999588              -2.7200
        32                         -0.0512434              -1.3944
        33                          0.0276541               0.7525
        34                          0.0703764               1.9150
        35                          0.0705502               1.9198
        36                          0.0725010               1.9729
        37                          0.0764064               2.0791
        38                          0.0764203               2.0795
        39                          0.0818579               2.2275
       ...                                ...                  ...
        57                          0.6616350              18.0040
      -------------------------------------------------------------
                  HL-Gap            0.1613915 Eh            4.3917 eV

     #   Z          covCN         q      C6AA      α(0)
     1   7 N        2.698    -0.311    27.995     7.858
     2   6 C        3.787     0.042    19.886     6.352
     3   6 C        3.753    -0.114    22.736     6.799
     4   6 C        2.974     0.004    27.919     8.667
     5   6 C        2.925    -0.031    28.764     8.795
     6   6 C        2.920    -0.025    28.623     8.773
     7   6 C        2.921    -0.028    28.704     8.786
     8   6 C        2.919    -0.029    28.716     8.788
     9   6 C        2.925    -0.033    28.811     8.802
    10  17 Cl       0.838    -0.483   115.072    16.410
    11   1 H        0.902     0.328     0.632     1.243
    12   1 H        0.860     0.169     1.280     1.773
    13   1 H        0.860     0.166     1.295     1.783
    14   1 H        0.924     0.049     2.327     2.386
    15   1 H        0.925     0.041     2.437     2.441
    16   1 H        0.925     0.045     2.377     2.411
    17   1 H        0.925     0.038     2.473     2.459
    18   1 H        0.926     0.039     2.467     2.456
    19   1 H        0.926     0.037     2.489     2.467
    20   1 H        0.926     0.034     2.524     2.485
    21   1 H        0.926     0.033     2.546     2.495
    22   1 H        0.926     0.026     2.644     2.543

Wiberg/Mayer (AO) data.
largest (>0.10) Wiberg bond orders for each atom

     #   Z sym  total        # sym  WBO       # sym  WBO       # sym  WBO
 ---------------------------------------------------------------------------
     1   7 N    3.243 --     2 C    0.988    13 H    0.957    12 H    0.954
                            11 H    0.206
     2   6 C    3.972 --     3 C    0.994     4 C    0.991     1 N    0.988
                            14 H    0.964
     3   6 C    3.995 --     2 C    0.994    17 H    0.985    16 H    0.985
                            15 H    0.984
     4   6 C    3.988 --     5 C    1.417     9 C    1.415     2 C    0.991
                             7 C    0.110
     5   6 C    3.992 --     6 C    1.443     4 C    1.417    18 H    0.968
                             8 C    0.111
     6   6 C    3.992 --     5 C    1.443     7 C    1.441    19 H    0.971
                             9 C    0.112
     7   6 C    3.992 --     6 C    1.441     8 C    1.438    20 H    0.971
                             4 C    0.110
     8   6 C    3.993 --     9 C    1.445     7 C    1.438    21 H    0.971
                             5 C    0.111
     9   6 C    3.993 --     8 C    1.445     4 C    1.415    22 H    0.967
                             6 C    0.112
    10  17 Cl   0.768 --    11 H    0.682
    11   1 H    0.892 --    10 Cl   0.682     1 N    0.206
    12   1 H    0.972 --     1 N    0.954
    13   1 H    0.972 --     1 N    0.957
    14   1 H    0.997 --     2 C    0.964
    15   1 H    0.998 --     3 C    0.984
    16   1 H    0.998 --     3 C    0.985
    17   1 H    0.998 --     3 C    0.985
    18   1 H    0.999 --     5 C    0.968
    19   1 H    0.998 --     6 C    0.971
    20   1 H    0.998 --     7 C    0.971
    21   1 H    0.999 --     8 C    0.971
    22   1 H    0.999 --     9 C    0.967
 ---------------------------------------------------------------------------

molecular dipole:
                 x           y           z       tot (Debye)
 q only:       -1.746       0.533      -0.787
   full:       -1.649       0.476      -0.847       4.864

           -------------------------------------------------
          | TOTAL ENERGY              -30.704410551869 Eh   |
          | GRADIENT NORM               0.000911566786 Eh/α |
          | HOMO-LUMO GAP               4.391687078801 eV   |
           -------------------------------------------------

 * finished run on 2023/01/23 at 14:30:46.213
