   * xtb version 6.5.1 (fef0646) compiled by 'conda@b96dff2e9fd6' on 2023-01-04
          program call               : xtb init.xyz --opt -c 0 -u 0 -P 16

   ID    Z sym.   atoms
    1    7 N      1
    2    6 C      2-10
    3   17 Cl     11
    4    1 H      12-23

          :  Hamiltonian                  GFN2-xTB          :
 * total energy  :   -32.7944200 Eh     change       -0.3151897E-09 Eh
 * total energy  :   -32.8020749 Eh     change       -0.7654868E-02 Eh
 * total energy  :   -32.8068794 Eh     change       -0.4804526E-02 Eh
 * total energy  :   -32.8096509 Eh     change       -0.2771459E-02 Eh
 * total energy  :   -32.8125426 Eh     change       -0.2891733E-02 Eh
 * total energy  :   -32.8142664 Eh     change       -0.1723774E-02 Eh
 * total energy  :   -32.8149945 Eh     change       -0.7281385E-03 Eh
 * total energy  :   -32.8153679 Eh     change       -0.3733711E-03 Eh
 * total energy  :   -32.8154853 Eh     change       -0.1174037E-03 Eh
 * total energy  :   -32.8155105 Eh     change       -0.2517451E-04 Eh
 * total energy  :   -32.8156498 Eh     change       -0.6373044E-05 Eh
 * total energy  :   -32.8156623 Eh     change       -0.1248628E-04 Eh
 * total energy  :   -32.8156731 Eh     change       -0.1080611E-04 Eh
 * total energy  :   -32.8156817 Eh     change       -0.8560023E-05 Eh
 * total energy  :   -32.8156920 Eh     change       -0.1030815E-04 Eh
 * total energy  :   -32.8157073 Eh     change       -0.1535226E-04 Eh
 * total energy  :   -32.8157137 Eh     change       -0.6406297E-05 Eh
 * total energy  :   -32.8157194 Eh     change       -0.5644403E-05 Eh
 * total energy  :   -32.8157220 Eh     change       -0.2656658E-05 Eh
   *** GEOMETRY OPTIMIZATION CONVERGED AFTER 24 ITERATIONS ***

 final structure:
================
23
 xtb: 6.5.1 (fef0646)
N            1.53790669114945       -0.27837211523255       -0.81575125487645
C            2.73361727798166       -0.24673236394513        0.03396899380982
C            3.16110896444128        1.17126320041960        0.24099964887594
C            4.39350807033737        1.61493178044834        0.00857933885573
C            4.87461733447022        2.97843800383994        0.18490925451954
C            4.10830569098507        3.98358536636023        0.77738930201445
C            4.60915796982713        5.26351555038296        0.91338214905386
C            5.88324938157389        5.57067192466869        0.46294406043399
C            6.65712281745984        4.58326559727669       -0.12303813428723
C            6.15859168289859        3.30167818769945       -0.25748403663988
Cl          -0.60385005343011        1.29042878102608        0.43774786293006
H            1.20711994759492       -1.22676277117214       -0.95368718710922
H            1.73274408255945        0.13929210694679       -1.71980215072499
H            0.40071445382891        0.56082545182233       -0.14516110650488
H            3.56067213141171       -0.83613133053492       -0.38621765822991
H            2.45267536044491       -0.68582204946801        0.99725429389991
H            2.37568498046201        1.82559024198136        0.58549566383328
H            5.14072021744286        0.91696577829423       -0.35438123737765
H            3.11701697843928        3.76171217217246        1.14004475840179
H            4.00275832079148        6.02887230225397        1.37536279086945
H            6.27064192727646        6.57294189410144        0.57034631745227
H            7.65250668759469        4.81276075433061       -0.47489062689978
H            6.76960908445830        2.53649153632796       -0.71625104230064

          :  Hamiltonian                  GFN2-xTB          :
         :: total energy             -32.815722027012 Eh    ::
         :: gradient norm              0.000656255859 Eh/a0 ::
         :: HOMO-LUMO gap              3.546342033082 eV    ::
         :: SCC energy               -33.316271712110 Eh    ::
         :: -> dispersion             -0.018375211661 Eh    ::
         :: repulsion energy           0.500582033570 Eh    ::

    * Orbital Energies and Occupations

         #    Occupation            Energy/Eh            Energy/eV
      -------------------------------------------------------------
         1        2.0000           -1.0179638             -27.7002
       ...           ...                  ...                  ...
        18        2.0000           -0.4851397             -13.2013
        19        2.0000           -0.4805861             -13.0774
        20        2.0000           -0.4765391             -12.9673
        21        2.0000           -0.4674140             -12.7190
        22        2.0000           -0.4489597             -12.2168
        23        2.0000           -0.4370829             -11.8936
        24        2.0000           -0.4259024             -11.5894
        25        2.0000           -0.4204359             -11.4406
        26        2.0000           -0.4056663             -11.0387
        27        2.0000           -0.4013125             -10.9203
        28        2.0000           -0.3949176             -10.7463
        29        2.0000           -0.3948769             -10.7451
        30        2.0000           -0.3861112             -10.5066 (HOMO)
        31                         -0.2557855              -6.9603 (LUMO)
        32                         -0.2230729              -6.0701
        33                         -0.1776993              -4.8354
        34                         -0.0803926              -2.1876
        35                         -0.0543536              -1.4790
        36                          0.0253314               0.6893
        37                          0.0661020               1.7987
        38                          0.0666024               1.8123
        39                          0.0720206               1.9598
        40                          0.0723343               1.9683
        41                          0.0811832               2.2091
       ...                                ...                  ...
        61                          0.6871426              18.6981
      -------------------------------------------------------------
                  HL-Gap            0.1303257 Eh            3.5463 eV

     #   Z          covCN         q      C6AA      α(0)
     1   7 N        2.692    -0.303    27.802     7.831
     2   6 C        3.735     0.008    20.520     6.465
     3   6 C        2.893    -0.052    29.286     8.873
     4   6 C        2.900    -0.040    28.998     8.829
     5   6 C        2.971     0.014    27.700     8.633
     6   6 C        2.924    -0.034    28.837     8.806
     7   6 C        2.918    -0.028    28.706     8.786
     8   6 C        2.920    -0.030    28.740     8.791
     9   6 C        2.917    -0.030    28.744     8.792
    10   6 C        2.929    -0.034    28.849     8.808
    11  17 Cl       0.837    -0.485   115.138    16.415
    12   1 H        0.860     0.165     1.303     1.788
    13   1 H        0.860     0.167     1.291     1.780
    14   1 H        0.897     0.333     0.620     1.232
    15   1 H        0.923     0.028     2.612     2.528
    16   1 H        0.924     0.059     2.208     2.324
    17   1 H        0.926     0.065     2.142     2.289
    18   1 H        0.925     0.033     2.546     2.495
    19   1 H        0.926     0.040     2.447     2.446
    20   1 H        0.926     0.033     2.545     2.495
    21   1 H        0.926     0.031     2.571     2.508
    22   1 H        0.926     0.030     2.587     2.515
    23   1 H        0.925     0.029     2.600     2.521

Wiberg/Mayer (AO) data.
largest (>0.10) Wiberg bond orders for each atom

     #   Z sym  total        # sym  WBO       # sym  WBO       # sym  WBO
 ---------------------------------------------------------------------------
     1   7 N    3.235 --     2 C    0.995    13 H    0.959    12 H    0.959
                            14 H    0.204
     2   6 C    3.973 --     3 C    1.023     1 N    0.995    15 H    0.970
                            16 H    0.959
     3   6 C    3.987 --     4 C    1.854     2 C    1.023    17 H    0.957
     4   6 C    3.991 --     3 C    1.854     5 C    1.094    18 H    0.961
     5   6 C    3.990 --    10 C    1.376     6 C    1.371     4 C    1.094
                             8 C    0.101
     6   6 C    3.992 --     7 C    1.462     5 C    1.371    19 H    0.966
                             9 C    0.106
     7   6 C    3.993 --     6 C    1.462     8 C    1.427    20 H    0.971
                            10 C    0.105
     8   6 C    3.990 --     9 C    1.434     7 C    1.427    21 H    0.972
                             5 C    0.101
     9   6 C    3.992 --    10 C    1.455     8 C    1.434    22 H    0.971
                             6 C    0.106
    10   6 C    3.989 --     9 C    1.455     5 C    1.376    23 H    0.969
                             7 C    0.105
    11  17 Cl   0.767 --    14 H    0.680
    12   1 H    0.972 --     1 N    0.959
    13   1 H    0.972 --     1 N    0.959
    14   1 H    0.889 --    11 Cl   0.680     1 N    0.204
    15   1 H    0.999 --     2 C    0.970
    16   1 H    0.994 --     2 C    0.959
    17   1 H    0.996 --     3 C    0.957
    18   1 H    0.998 --     4 C    0.961
    19   1 H    0.998 --     6 C    0.966
    20   1 H    0.998 --     7 C    0.971
    21   1 H    0.999 --     8 C    0.972
    22   1 H    0.999 --     9 C    0.971
    23   1 H    0.999 --    10 C    0.969
 ---------------------------------------------------------------------------

molecular dipole:
                 x           y           z       tot (Debye)
 q only:        1.501      -0.872      -0.705
   full:        1.321      -0.914      -0.766       4.524

           -------------------------------------------------
          | TOTAL ENERGY              -32.815722027012 Eh   |
          | GRADIENT NORM               0.000656255859 Eh/α |
          | HOMO-LUMO GAP               3.546342033082 eV   |
           -------------------------------------------------

 * finished run on 2023/01/23 at 13:40:32.368
