   * xtb version 6.5.1 (fef0646) compiled by 'conda@b96dff2e9fd6' on 2023-01-04
          program call               : xtb init.xyz --opt -c 1 -u 0 -P 16 --input xtb.inp

   ID    Z sym.   atoms
    1    7 N      1
    2    6 C      2-9
    3    1 H      10-21

          :  Hamiltonian                  GFN2-xTB          :
 * total energy  :   -25.7247769 Eh     change       -0.3640395E-09 Eh
 * total energy  :   -25.7270244 Eh     change       -0.2247485E-02 Eh
 * total energy  :   -25.7274001 Eh     change       -0.3757331E-03 Eh
 * total energy  :   -25.7274904 Eh     change       -0.9026183E-04 Eh
 * total energy  :   -25.7275443 Eh     change       -0.5386835E-04 Eh
 * total energy  :   -25.7275715 Eh     change       -0.2723222E-04 Eh
 * total energy  :   -25.7276040 Eh     change       -0.3253610E-04 Eh
 * total energy  :   -25.7276284 Eh     change       -0.2440701E-04 Eh
 * total energy  :   -25.7276462 Eh     change       -0.1774883E-04 Eh
 * total energy  :   -25.7276545 Eh     change       -0.8275622E-05 Eh
 * total energy  :   -25.7276608 Eh     change       -0.6315542E-05 Eh
 * total energy  :   -25.7276650 Eh     change       -0.4219758E-05 Eh
   *** GEOMETRY OPTIMIZATION CONVERGED AFTER 12 ITERATIONS ***

 final structure:
================
21
 xtb: 6.5.1 (fef0646)
N            1.17222205250358        0.26654108391498       -0.74086306227103
C            2.50087486245762       -0.02094163923759       -0.06307021844542
C            2.30538685043217        0.09362747378959        1.43879404403880
C            2.97098425714192       -1.38479412700822       -0.50342649101629
C            4.19217147295261       -1.52416820915822       -1.15073768845759
C            4.63052592890411       -2.77497870369912       -1.55073522474670
C            3.84804455974006       -3.89248911491877       -1.31423656567637
C            2.62806039740108       -3.75993242988305       -0.67100918210624
C            2.18994537071012       -2.51221461014508       -0.26526116314862
H            0.77829493922325        1.15698514717717       -0.41353699767031
H            0.52142972134427       -0.49541876383501       -0.50486566313540
H            1.28170591304050        0.29437524541032       -1.76137649470871
H            3.20622194384753        0.74124083821589       -0.40514241814075
H            1.59289530098553       -0.64041890719913        1.80540331104704
H            1.97238867635815        1.09008539663365        1.72027331283147
H            3.25307335433485       -0.09280724059082        1.93630647110322
H            4.80600710299200       -0.65457734702289       -1.33224239389630
H            5.58250505887379       -2.87347527387940       -2.04754983088103
H            4.18862945253181       -4.86679410062187       -1.62647084313390
H            2.01825476299528       -4.62893030553578       -0.48045895422994
H            1.24310802122977       -2.43340441240658        0.25300605264408

          :  Hamiltonian                  GFN2-xTB          :
         :: total energy             -25.727664991840 Eh    ::
         :: gradient norm              0.000702865045 Eh/a0 ::
         :: HOMO-LUMO gap              4.655965228069 eV    ::
         :: SCC energy               -26.179184491399 Eh    ::
         :: -> dispersion             -0.015098092691 Eh    ::
         :: repulsion energy           0.451431528998 Eh    ::

    * Orbital Energies and Occupations

         #    Occupation            Energy/Eh            Energy/eV
      -------------------------------------------------------------
         1        2.0000           -0.8827662             -24.0213
       ...           ...                  ...                  ...
        12        2.0000           -0.6721490             -18.2901
        13        2.0000           -0.6590811             -17.9345
        14        2.0000           -0.6383179             -17.3695
        15        2.0000           -0.6272813             -17.0692
        16        2.0000           -0.6246355             -16.9972
        17        2.0000           -0.6189398             -16.8422
        18        2.0000           -0.6101158             -16.6021
        19        2.0000           -0.6094304             -16.5834
        20        2.0000           -0.6044349             -16.4475
        21        2.0000           -0.5568868             -15.1537
        22        2.0000           -0.5527344             -15.0407
        23        2.0000           -0.5392435             -14.6736
        24        2.0000           -0.5386439             -14.6572 (HOMO)
        25                         -0.3675403             -10.0013 (LUMO)
        26                         -0.3565157              -9.7013
        27                         -0.2569577              -6.9922
        28                         -0.2229717              -6.0674
        29                         -0.1560489              -4.2463
        30                         -0.0975607              -2.6548
        31                         -0.0865840              -2.3561
        32                         -0.0658254              -1.7912
        33                         -0.0250892              -0.6827
        34                         -0.0083901              -0.2283
        35                          0.0117881               0.3208
       ...                                ...                  ...
        48                          0.5301440              14.4260
      -------------------------------------------------------------
                  HL-Gap            0.1711036 Eh            4.6560 eV

     #   Z          covCN         q      C6AA      α(0)
     1   7 N        3.484    -0.143    24.077     7.288
     2   6 C        3.784     0.023    20.197     6.402
     3   6 C        3.755    -0.138    23.218     6.871
     4   6 C        2.973    -0.016    28.407     8.743
     5   6 C        2.923    -0.034    28.851     8.808
     6   6 C        2.919    -0.018    28.450     8.747
     7   6 C        2.920    -0.016    28.408     8.740
     8   6 C        2.919    -0.021    28.519     8.757
     9   6 C        2.922    -0.042    29.035     8.836
    10   1 H        0.859     0.266     0.826     1.423
    11   1 H        0.859     0.270     0.809     1.409
    12   1 H        0.859     0.263     0.833     1.430
    13   1 H        0.924     0.092     1.862     2.134
    14   1 H        0.925     0.073     2.049     2.239
    15   1 H        0.925     0.068     2.109     2.271
    16   1 H        0.925     0.097     1.809     2.103
    17   1 H        0.926     0.049     2.337     2.390
    18   1 H        0.926     0.066     2.132     2.284
    19   1 H        0.926     0.067     2.119     2.276
    20   1 H        0.926     0.061     2.184     2.311
    21   1 H        0.925     0.031     2.572     2.508

Wiberg/Mayer (AO) data.
largest (>0.10) Wiberg bond orders for each atom

     #   Z sym  total        # sym  WBO       # sym  WBO       # sym  WBO
 ---------------------------------------------------------------------------
     1   7 N    3.666 --    12 H    0.916    10 H    0.912    11 H    0.903
                             2 C    0.881
     2   6 C    3.890 --     3 C    1.010     4 C    0.992    13 H    0.959
                             1 N    0.881
     3   6 C    3.979 --     2 C    1.010    15 H    0.979    14 H    0.978
                            16 H    0.970
     4   6 C    3.975 --     5 C    1.413     9 C    1.403     2 C    0.992
                             7 C    0.108
     5   6 C    3.991 --     6 C    1.440     4 C    1.413    17 H    0.967
                             8 C    0.108
     6   6 C    3.989 --     7 C    1.442     5 C    1.440    18 H    0.968
                             9 C    0.111
     7   6 C    3.987 --     6 C    1.442     8 C    1.433    19 H    0.968
                             4 C    0.108
     8   6 C    3.990 --     9 C    1.449     7 C    1.433    20 H    0.968
                             5 C    0.108
     9   6 C    3.992 --     8 C    1.449     4 C    1.403    21 H    0.962
                             6 C    0.111
    10   1 H    0.929 --     1 N    0.912
    11   1 H    0.927 --     1 N    0.903
    12   1 H    0.931 --     1 N    0.916
    13   1 H    0.991 --     2 C    0.959
    14   1 H    0.995 --     3 C    0.978
    15   1 H    0.995 --     3 C    0.979
    16   1 H    0.991 --     3 C    0.970
    17   1 H    0.998 --     5 C    0.967
    18   1 H    0.995 --     6 C    0.968
    19   1 H    0.995 --     7 C    0.968
    20   1 H    0.996 --     8 C    0.968
    21   1 H    0.999 --     9 C    0.962
 ---------------------------------------------------------------------------

molecular dipole:
                 x           y           z       tot (Debye)
 q only:        3.183      -0.479      -1.160
   full:        2.975      -0.355      -1.255       8.257

           -------------------------------------------------
          | TOTAL ENERGY              -25.727664991840 Eh   |
          | GRADIENT NORM               0.000702865045 Eh/α |
          | HOMO-LUMO GAP               4.655965228069 eV   |
           -------------------------------------------------

 * finished run on 2023/01/23 at 21:09:01.794
