   * xtb version 6.5.1 (fef0646) compiled by 'conda@b96dff2e9fd6' on 2023-01-04
          program call               : xtb init.xyz --opt -c 0 -u 0 -P 16 --input xtb.inp

   ID    Z sym.   atoms
    1    7 N      1
    2    6 C      2, 3
    3   17 Cl     4
    4    1 H      5-12

          :  Hamiltonian                  GFN2-xTB          :
 * total energy  :   -15.8056362 Eh     change       -0.4294733E-09 Eh
 * total energy  :   -15.8114384 Eh     change       -0.5802232E-02 Eh
 * total energy  :   -15.8160565 Eh     change       -0.4618117E-02 Eh
 * total energy  :   -15.8189172 Eh     change       -0.2860695E-02 Eh
 * total energy  :   -15.8214605 Eh     change       -0.2543262E-02 Eh
 * total energy  :   -15.8229975 Eh     change       -0.1537009E-02 Eh
 * total energy  :   -15.8233313 Eh     change       -0.3338366E-03 Eh
 * total energy  :   -15.8234778 Eh     change       -0.1464546E-03 Eh
 * total energy  :   -15.8235130 Eh     change       -0.3523665E-04 Eh
 * total energy  :   -15.8235535 Eh     change       -0.4049378E-04 Eh
 * total energy  :   -15.8236135 Eh     change       -0.6000399E-04 Eh
 * total energy  :   -15.8236501 Eh     change       -0.3660073E-04 Eh
 * total energy  :   -15.8236789 Eh     change       -0.2872131E-04 Eh
 * total energy  :   -15.8236857 Eh     change       -0.6807291E-05 Eh
 * total energy  :   -15.8236942 Eh     change       -0.8570980E-05 Eh
 * total energy  :   -15.8237007 Eh     change       -0.6495272E-05 Eh
 * total energy  :   -15.8237088 Eh     change       -0.8052068E-05 Eh
 * total energy  :   -15.8237093 Eh     change       -0.4973779E-06 Eh
   *** GEOMETRY OPTIMIZATION CONVERGED AFTER 18 ITERATIONS ***

 final structure:
================
12
 xtb: 6.5.1 (fef0646)
N            1.08118032883416       -0.23340053172806       -0.24406007675169
C            2.53147855725829       -0.40015159417559       -0.14647492610041
C            2.92675323077292       -0.61994853803047        1.30585083840744
Cl           0.23298720975486        2.07231916027254        1.35568209369649
H            0.78973506230049       -0.07099383334940       -1.20148693593045
H            0.64121610787821        0.99005683650984        0.61220871724857
H            0.60121537096381       -1.05365901780597        0.11193986505408
H            2.99055012847104        0.51779740891306       -0.52023780371872
H            2.88999378482661       -1.23824455891716       -0.76159888758341
H            2.57872852374926        0.21086611797735        1.91219169391748
H            4.00681997465764       -0.69368401701384        1.39292881820100
H            2.48523172053252       -1.53805743265226        1.68752660355966

          :  Hamiltonian                  GFN2-xTB          :
         :: total energy             -15.823709279512 Eh    ::
         :: gradient norm              0.000305389677 Eh/a0 ::
         :: HOMO-LUMO gap              9.192940635213 eV    ::
         :: SCC energy               -15.972108561529 Eh    ::
         :: -> dispersion             -0.005421252691 Eh    ::
         :: repulsion energy           0.148391139111 Eh    ::

    * Orbital Energies and Occupations

         #    Occupation            Energy/Eh            Energy/eV
      -------------------------------------------------------------
         1        2.0000           -1.0160076             -27.6470
         2        2.0000           -0.6593701             -17.9424
         3        2.0000           -0.6210065             -16.8984
         4        2.0000           -0.5894972             -16.0410
         5        2.0000           -0.5558785             -15.1262
         6        2.0000           -0.5490648             -14.9408
         7        2.0000           -0.5220689             -14.2062
         8        2.0000           -0.4916369             -13.3781
         9        2.0000           -0.4753449             -12.9348
        10        2.0000           -0.4712111             -12.8223
        11        2.0000           -0.4573994             -12.4465
        12        2.0000           -0.3988009             -10.8519
        13        2.0000           -0.3930982             -10.6967
        14        2.0000           -0.3930257             -10.6948 (HOMO)
        15                         -0.0551913              -1.5018 (LUMO)
        16                          0.0199200               0.5420
        17                          0.0683753               1.8606
        18                          0.0687476               1.8707
        19                          0.0743049               2.0219
        20                          0.0744692               2.0264
        21                          0.0987466               2.6870
        22                          0.1055313               2.8717
        23                          0.1266070               3.4452
        24                          0.1542119               4.1963
        25                          0.1727763               4.7015
       ...                                ...                  ...
        29                          0.2677204               7.2850
      -------------------------------------------------------------
                  HL-Gap            0.3378344 Eh            9.1929 eV

     #   Z          covCN         q      C6AA      α(0)
     1   7 N        2.698    -0.304    27.825     7.834
     2   6 C        3.730     0.012    20.468     6.458
     3   6 C        3.753    -0.122    22.901     6.824
     4  17 Cl       0.837    -0.489   115.275    16.425
     5   1 H        0.860     0.164     1.309     1.792
     6   1 H        0.904     0.333     0.620     1.232
     7   1 H        0.860     0.168     1.284     1.775
     8   1 H        0.924     0.052     2.290     2.366
     9   1 H        0.923     0.024     2.671     2.556
    10   1 H        0.925     0.069     2.100     2.266
    11   1 H        0.925     0.049     2.331     2.387
    12   1 H        0.925     0.044     2.398     2.422

Wiberg/Mayer (AO) data.
largest (>0.10) Wiberg bond orders for each atom

     #   Z sym  total        # sym  WBO       # sym  WBO       # sym  WBO
 ---------------------------------------------------------------------------
     1   7 N    3.242 --     2 C    1.004     5 H    0.960     7 H    0.958
                             6 H    0.209
     2   6 C    3.975 --     3 C    1.020     1 N    1.004     8 H    0.975
                             9 H    0.974
     3   6 C    3.992 --     2 C    1.020    12 H    0.986    11 H    0.984
                            10 H    0.983
     4  17 Cl   0.764 --     6 H    0.675
     5   1 H    0.973 --     1 N    0.960
     6   1 H    0.889 --     4 Cl   0.675     1 N    0.209
     7   1 H    0.972 --     1 N    0.958
     8   1 H    0.997 --     2 C    0.975
     9   1 H    0.999 --     2 C    0.974
    10   1 H    0.995 --     3 C    0.983
    11   1 H    0.998 --     3 C    0.984
    12   1 H    0.998 --     3 C    0.986
 ---------------------------------------------------------------------------

molecular dipole:
                 x           y           z       tot (Debye)
 q only:        0.725      -1.550      -0.938
   full:        0.567      -1.486      -0.967       4.730

           -------------------------------------------------
          | TOTAL ENERGY              -15.823709279512 Eh   |
          | GRADIENT NORM               0.000305389677 Eh/α |
          | HOMO-LUMO GAP               9.192940635213 eV   |
           -------------------------------------------------

 * finished run on 2023/01/23 at 18:48:56.026
