   * xtb version 6.5.1 (fef0646) compiled by 'conda@b96dff2e9fd6' on 2023-01-04
          program call               : xtb init.xyz --opt -c 0 -u 0 -P 16 --alpb water

   ID    Z sym.   atoms
    1    7 N      1
    2    6 C      2-17
    3   17 Cl     18
    4    1 H      19-36

      * Solvation model:               ALPB
        Solvent                        water
        Solvent mass                       1.8000E+01 g/mol
          :  Hamiltonian                  GFN2-xTB          :
 * total energy  :   -50.9045952 Eh     change       -0.2319361E-08 Eh
 * total energy  :   -50.9101268 Eh     change       -0.5531641E-02 Eh
 * total energy  :   -50.9113371 Eh     change       -0.1210226E-02 Eh
 * total energy  :   -50.9117609 Eh     change       -0.4237827E-03 Eh
 * total energy  :   -50.9120041 Eh     change       -0.2432581E-03 Eh
 * total energy  :   -50.9122038 Eh     change       -0.1997052E-03 Eh
 * total energy  :   -50.9124201 Eh     change       -0.2162792E-03 Eh
 * total energy  :   -50.9126192 Eh     change       -0.1991417E-03 Eh
 * total energy  :   -50.9127609 Eh     change       -0.1416882E-03 Eh
 * total energy  :   -50.9128915 Eh     change       -0.1305854E-03 Eh
 * total energy  :   -50.9156308 Eh     change       -0.1368594E-04 Eh
 * total energy  :   -50.9156782 Eh     change       -0.4739302E-04 Eh
 * total energy  :   -50.9157057 Eh     change       -0.2753597E-04 Eh
 * total energy  :   -50.9157257 Eh     change       -0.2001142E-04 Eh
 * total energy  :   -50.9157607 Eh     change       -0.3503646E-04 Eh
 * total energy  :   -50.9157722 Eh     change       -0.1149360E-04 Eh
 * total energy  :   -50.9157797 Eh     change       -0.7509124E-05 Eh
 * total energy  :   -50.9157869 Eh     change       -0.7165339E-05 Eh
 * total energy  :   -50.9157918 Eh     change       -0.4896361E-05 Eh
   *** GEOMETRY OPTIMIZATION CONVERGED AFTER 80 ITERATIONS ***

 final structure:
================
36
 xtb: 6.5.1 (fef0646)
N            0.84731755975797        0.85351415812657       -1.97194707100122
C            2.31320324369982        0.95386308689418       -2.11551903933115
C            2.92171122129906        1.52688399972810       -0.83544180889675
C            4.42146751524534        1.46907975262347       -0.89989674956709
C            5.15138930378477        2.50580913195865       -1.47083944897299
C            6.52683085970123        2.44275412229976       -1.55937865135575
C            7.22661260451855        1.33309451287640       -1.07831675673075
C            8.67146261061229        1.21329653510710       -1.13845228853952
C            9.50487388916880        2.01120478343337       -1.82129660245883
C           10.95007870790482        1.89426815238352       -1.88805972623966
C           11.68862767882041        1.01533033279242       -1.09096710511706
C           13.06385344051989        0.94894115359645       -1.19744181398159
C           13.73852385074839        1.75582821047374       -2.10030701235422
C           13.02306370106893        2.63633552128557       -2.89536844336114
C           11.64804507914572        2.70614853815633       -2.78774603348207
C            6.48577795317328        0.29725630858926       -0.50046448078215
C            5.10963686417192        0.36182519110455       -0.41965275176989
Cl           0.23500927254412       -0.89979333390239        0.45921472851463
H            0.41529002509227        0.43722078848360       -2.79966694391643
H            0.43420377879469        1.77150499958331       -1.78886136689196
H            0.61733727849461        0.24150980925384       -1.14669636263011
H            2.56008668445705        1.58853805804446       -2.96770043327122
H            2.71728182507343       -0.04429180948203       -2.28447478325006
H            2.56241069434720        0.93457439198087        0.00794317240161
H            2.60181577293323        2.56016188754330       -0.69886867378889
H            4.63686118581930        3.37984604933224       -1.84151211066451
H            7.06553111579670        3.27012325801424       -1.99411514321622
H            9.07267646726344        0.37496848630366       -0.58384108989833
H            9.09840377690034        2.82232313224906       -2.41071604700401
H           11.18507307183478        0.38477667784134       -0.37460221425045
H           13.61677869453379        0.26457001259450       -0.57063438083345
H           14.81369464706861        1.70010397381879       -2.18049287820534
H           13.54087906750322        3.27109684430863       -3.59932724755503
H           11.09781041177896        3.39632146636476       -3.41140782769601
H            7.00248158412785       -0.57036059223118       -0.11435529264340
H            4.55896856229427       -0.45135759155341        0.03206067872656

          :  Hamiltonian                  GFN2-xTB          :
         :: total energy             -50.915791811916 Eh    ::
         :: gradient norm              0.000516421056 Eh/a0 ::
         :: HOMO-LUMO gap              2.772363984563 eV    ::
         :: SCC energy               -51.765698722271 Eh    ::
         :: -> dispersion             -0.033074267400 Eh    ::
         :: -> Gsolv                  -0.075697742975 Eh    ::
         :: repulsion energy           0.850286926862 Eh    ::

    * Orbital Energies and Occupations

         #    Occupation            Energy/Eh            Energy/eV
      -------------------------------------------------------------
         1        2.0000           -1.0065496             -27.3896
       ...           ...                  ...                  ...
        35        2.0000           -0.4346122             -11.8264
        36        2.0000           -0.4331585             -11.7868
        37        2.0000           -0.4274225             -11.6308
        38        2.0000           -0.4170214             -11.3477
        39        2.0000           -0.4160010             -11.3200
        40        2.0000           -0.4090250             -11.1301
        41        2.0000           -0.4045900             -11.0095
        42        2.0000           -0.4024661             -10.9517
        43        2.0000           -0.4012473             -10.9185
        44        2.0000           -0.4004137             -10.8958
        45        2.0000           -0.3999870             -10.8842
        46        2.0000           -0.3989424             -10.8558
        47        2.0000           -0.3650806              -9.9343 (HOMO)
        48                         -0.2631981              -7.1620 (LUMO)
        49                         -0.2186357              -5.9494
        50                         -0.2161726              -5.8824
        51                         -0.2063477              -5.6150
        52                         -0.1577125              -4.2916
        53                         -0.0838406              -2.2814
        54                         -0.0653968              -1.7795
        55                         -0.0248644              -0.6766
        56                          0.0788191               2.1448
        57                          0.0965268               2.6266
        58                          0.1011862               2.7534
       ...                                ...                  ...
        95                          0.7068834              19.2353
      -------------------------------------------------------------
                  HL-Gap            0.1018825 Eh            2.7724 eV

     #   Z          covCN         q      C6AA      α(0)
     1   7 N        3.484    -0.170    24.662     7.376
     2   6 C        3.734    -0.020    21.028     6.545
     3   6 C        3.809    -0.085    22.121     6.695
     4   6 C        2.971     0.014    27.705     8.634
     5   6 C        2.922    -0.046    29.147     8.853
     6   6 C        2.922    -0.040    28.989     8.829
     7   6 C        2.970     0.008    27.841     8.655
     8   6 C        2.901    -0.041    29.024     8.833
     9   6 C        2.901    -0.045    29.114     8.847
    10   6 C        2.970     0.012    27.750     8.641
    11   6 C        2.923    -0.038    28.952     8.824
    12   6 C        2.918    -0.035    28.881     8.813
    13   6 C        2.920    -0.037    28.919     8.819
    14   6 C        2.917    -0.036    28.888     8.814
    15   6 C        2.929    -0.040    28.989     8.830
    16   6 C        2.927    -0.039    28.974     8.827
    17   6 C        2.921    -0.042    29.039     8.837
    18  17 Cl       0.048    -0.947   124.879    17.007
    19   1 H        0.859     0.305     0.699     1.310
    20   1 H        0.859     0.299     0.716     1.325
    21   1 H        0.905     0.295     0.725     1.332
    22   1 H        0.924     0.106     1.735     2.060
    23   1 H        0.925     0.095     1.832     2.117
    24   1 H        0.924     0.067     2.123     2.279
    25   1 H        0.924     0.071     2.078     2.255
    26   1 H        0.926     0.051     2.308     2.376
    27   1 H        0.926     0.039     2.458     2.452
    28   1 H        0.925     0.033     2.540     2.492
    29   1 H        0.925     0.041     2.437     2.441
    30   1 H        0.926     0.034     2.533     2.489
    31   1 H        0.926     0.032     2.552     2.498
    32   1 H        0.926     0.033     2.546     2.495
    33   1 H        0.926     0.034     2.526     2.486
    34   1 H        0.926     0.036     2.501     2.473
    35   1 H        0.926     0.027     2.629     2.536
    36   1 H        0.926     0.032     2.565     2.504

Wiberg/Mayer (AO) data.
largest (>0.10) Wiberg bond orders for each atom

     #   Z sym  total        # sym  WBO       # sym  WBO       # sym  WBO
 ---------------------------------------------------------------------------
     1   7 N    3.643 --     2 C    0.970    20 H    0.896    19 H    0.893
                            21 H    0.832
     2   6 C    3.931 --     3 C    0.993     1 N    0.970    23 H    0.969
                            22 H    0.968
     3   6 C    3.990 --     4 C    1.010     2 C    0.993    25 H    0.968
                            24 H    0.967
     4   6 C    3.977 --    17 C    1.401     5 C    1.398     3 C    1.010
     5   6 C    3.990 --     6 C    1.469     4 C    1.398    26 H    0.967
                            16 C    0.101
     6   6 C    3.983 --     5 C    1.469     7 C    1.361    27 H    0.965
                            17 C    0.102
     7   6 C    3.989 --    16 C    1.362     6 C    1.361     8 C    1.114
     8   6 C    3.990 --     9 C    1.759     7 C    1.114    28 H    0.959
     9   6 C    3.988 --     8 C    1.759    10 C    1.113    29 H    0.958
    10   6 C    3.989 --    15 C    1.365    11 C    1.364     9 C    1.113
    11   6 C    3.983 --    12 C    1.464    10 C    1.364    30 H    0.966
                            14 C    0.105
    12   6 C    3.992 --    11 C    1.464    13 C    1.426    31 H    0.971
                            15 C    0.103
    13   6 C    3.980 --    14 C    1.430    12 C    1.426    32 H    0.971
    14   6 C    3.992 --    15 C    1.461    13 C    1.430    33 H    0.971
                            11 C    0.105
    15   6 C    3.982 --    14 C    1.461    10 C    1.365    34 H    0.968
                            12 C    0.103
    16   6 C    3.982 --    17 C    1.466     7 C    1.362    35 H    0.969
                             5 C    0.101
    17   6 C    3.991 --    16 C    1.466     4 C    1.401    36 H    0.969
                             6 C    0.102
    18  17 Cl   0.103
    19   1 H    0.907 --     1 N    0.893
    20   1 H    0.911 --     1 N    0.896
    21   1 H    0.913 --     1 N    0.832
    22   1 H    0.989 --     2 C    0.968
    23   1 H    0.991 --     2 C    0.969
    24   1 H    0.995 --     3 C    0.967
    25   1 H    0.994 --     3 C    0.968
    26   1 H    0.997 --     5 C    0.967
    27   1 H    0.998 --     6 C    0.965
    28   1 H    0.998 --     8 C    0.959
    29   1 H    0.998 --     9 C    0.958
    30   1 H    0.999 --    11 C    0.966
    31   1 H    0.999 --    12 C    0.971
    32   1 H    0.998 --    13 C    0.971
    33   1 H    0.998 --    14 C    0.971
    34   1 H    0.999 --    15 C    0.968
    35   1 H    0.999 --    16 C    0.969
    36   1 H    0.999 --    17 C    0.969
 ---------------------------------------------------------------------------

molecular dipole:
                 x           y           z       tot (Debye)
 q only:        0.943       3.294      -4.353
   full:        0.714       2.782      -3.748      12.002

           -------------------------------------------------
          | TOTAL ENERGY              -50.915791811916 Eh   |
          | GRADIENT NORM               0.000516421056 Eh/α |
          | HOMO-LUMO GAP               2.772363984563 eV   |
           -------------------------------------------------

 * finished run on 2023/01/24 at 14:56:16.217
