   * xtb version 6.5.1 (fef0646) compiled by 'conda@b96dff2e9fd6' on 2023-01-04
          program call               : xtb init.xyz --opt -c 1 -u 0 -P 16 --alpb water

   ID    Z sym.   atoms
    1    7 N      1
    2    6 C      2-5
    3    8 O      6
    4    1 H      7-18

      * Solvation model:               ALPB
        Solvent                        water
        Solvent mass                       1.8000E+01 g/mol
          :  Hamiltonian                  GFN2-xTB          :
 * total energy  :   -21.3411197 Eh     change       -0.2312106E-10 Eh
 * total energy  :   -21.3430550 Eh     change       -0.1935349E-02 Eh
 * total energy  :   -21.3434064 Eh     change       -0.3513556E-03 Eh
 * total energy  :   -21.3435259 Eh     change       -0.1194814E-03 Eh
 * total energy  :   -21.3436111 Eh     change       -0.8519534E-04 Eh
 * total energy  :   -21.3436662 Eh     change       -0.5512390E-04 Eh
 * total energy  :   -21.3437161 Eh     change       -0.4988992E-04 Eh
 * total energy  :   -21.3437314 Eh     change       -0.1538007E-04 Eh
 * total energy  :   -21.3437362 Eh     change       -0.4792730E-05 Eh
 * total energy  :   -21.3437431 Eh     change       -0.6897798E-05 Eh
 * total energy  :   -21.3437492 Eh     change       -0.6025999E-05 Eh
 * total energy  :   -21.3437527 Eh     change       -0.3575930E-05 Eh
   *** GEOMETRY OPTIMIZATION CONVERGED AFTER 12 ITERATIONS ***

 final structure:
================
18
 xtb: 6.5.1 (fef0646)
N            0.89477519821344       -0.03684327838107        0.09299458006687
C            2.37766532921603       -0.03848319394734        0.09152098999371
C            2.90781677934910       -0.08475644855269       -1.33658596095398
C            4.43613011104021       -0.09919379459460       -1.36128874600450
C            4.95552402903964       -0.27169445312027       -2.79142944526581
O            4.54591106019329       -1.49271303302106       -3.37510417909751
H            0.52969608551898       -0.01249310017660        1.05170804859628
H            0.54236758708079       -0.88079949747953       -0.37434774182610
H            0.54253933612277        0.78237039237276       -0.41618152667823
H            2.73435949237717       -0.90601998277624        0.64648200902213
H            2.73883736114011        0.86185950145555        0.58840728774872
H            2.56431838265400        0.78424437675639       -1.89917027363711
H            2.55588502687108       -0.98079895030021       -1.85015266549079
H            4.81268910768259       -0.91915936818170       -0.74640454197847
H            4.83637461229788        0.83343418360403       -0.96351807118762
H            6.04928378784177       -0.18687106733707       -2.80873582801423
H            4.54477918027987        0.50655189023718       -3.43946063972928
H            4.98503753308126       -2.22380417655759       -2.92117329556412

          :  Hamiltonian                  GFN2-xTB          :
         :: total energy             -21.343752740012 Eh    ::
         :: gradient norm              0.000757132188 Eh/a0 ::
         :: HOMO-LUMO gap              9.814316026914 eV    ::
         :: SCC energy               -21.598886737891 Eh    ::
         :: -> dispersion             -0.008183030005 Eh    ::
         :: -> Gsolv                  -0.125764904951 Eh    ::
         :: repulsion energy           0.255120854141 Eh    ::

    * Orbital Energies and Occupations

         #    Occupation            Energy/Eh            Energy/eV
      -------------------------------------------------------------
         1        2.0000           -0.6925787             -18.8460
       ...           ...                  ...                  ...
         7        2.0000           -0.5900160             -16.0552
         8        2.0000           -0.5741442             -15.6233
         9        2.0000           -0.5511777             -14.9983
        10        2.0000           -0.5455722             -14.8458
        11        2.0000           -0.5326199             -14.4933
        12        2.0000           -0.5116724             -13.9233
        13        2.0000           -0.5061647             -13.7734
        14        2.0000           -0.4777143             -12.9993
        15        2.0000           -0.4676066             -12.7242
        16        2.0000           -0.4653402             -12.6626
        17        2.0000           -0.4376101             -11.9080
        18        2.0000           -0.4340685             -11.8116
        19        2.0000           -0.4119047             -11.2085 (HOMO)
        20                         -0.0512352              -1.3942 (LUMO)
        21                          0.0470316               1.2798
        22                          0.0564291               1.5355
        23                          0.0740647               2.0154
        24                          0.0989457               2.6924
        25                          0.1164109               3.1677
        26                          0.1349021               3.6709
        27                          0.1416617               3.8548
        28                          0.1469632               3.9991
        29                          0.1642744               4.4701
        30                          0.1885989               5.1320
       ...                                ...                  ...
        36                          0.3040673               8.2741
      -------------------------------------------------------------
                  HL-Gap            0.3606695 Eh            9.8143 eV

     #   Z          covCN         q      C6AA      α(0)
     1   7 N        3.485    -0.162    24.484     7.349
     2   6 C        3.732    -0.039    21.356     6.596
     3   6 C        3.804    -0.085    22.116     6.695
     4   6 C        3.801    -0.082    22.072     6.689
     5   6 C        3.675     0.075    19.546     6.335
     6   8 O        1.655    -0.518    23.288     6.515
     7   1 H        0.859     0.317     0.666     1.278
     8   1 H        0.859     0.309     0.688     1.299
     9   1 H        0.859     0.308     0.689     1.300
    10   1 H        0.925     0.108     1.713     2.046
    11   1 H        0.925     0.108     1.712     2.046
    12   1 H        0.924     0.067     2.123     2.278
    13   1 H        0.924     0.076     2.026     2.226
    14   1 H        0.924     0.053     2.283     2.363
    15   1 H        0.925     0.051     2.312     2.378
    16   1 H        0.924     0.016     2.801     2.617
    17   1 H        0.924     0.047     2.359     2.402
    18   1 H        0.805     0.352     0.584     1.200

Wiberg/Mayer (AO) data.
largest (>0.10) Wiberg bond orders for each atom

     #   Z sym  total        # sym  WBO       # sym  WBO       # sym  WBO
 ---------------------------------------------------------------------------
     1   7 N    3.653 --     2 C    0.967     9 H    0.890     8 H    0.890
                             7 H    0.887
     2   6 C    3.927 --     3 C    1.011     1 N    0.967    11 H    0.966
                            10 H    0.966
     3   6 C    3.989 --     2 C    1.011     4 C    1.006    12 H    0.973
                            13 H    0.970
     4   6 C    3.995 --     3 C    1.006     5 C    0.996    15 H    0.975
                            14 H    0.974
     5   6 C    3.951 --     4 C    0.996     6 O    0.993    17 H    0.973
                            16 H    0.972
     6   8 O    1.914 --     5 C    0.993    18 H    0.863
     7   1 H    0.899 --     1 N    0.887
     8   1 H    0.905 --     1 N    0.890
     9   1 H    0.905 --     1 N    0.890
    10   1 H    0.988 --     2 C    0.966
    11   1 H    0.988 --     2 C    0.966
    12   1 H    0.996 --     3 C    0.973
    13   1 H    0.994 --     3 C    0.970
    14   1 H    0.997 --     4 C    0.974
    15   1 H    0.997 --     4 C    0.975
    16   1 H    0.999 --     5 C    0.972
    17   1 H    0.998 --     5 C    0.973
    18   1 H    0.876 --     6 O    0.863
 ---------------------------------------------------------------------------

molecular dipole:
                 x           y           z       tot (Debye)
 q only:        2.245      -0.101       0.721
   full:        2.327      -0.123       0.793       6.256

           -------------------------------------------------
          | TOTAL ENERGY              -21.343752740012 Eh   |
          | GRADIENT NORM               0.000757132188 Eh/α |
          | HOMO-LUMO GAP               9.814316026914 eV   |
           -------------------------------------------------

 * finished run on 2023/01/24 at 14:58:03.433
