   * xtb version 6.5.1 (fef0646) compiled by 'conda@b96dff2e9fd6' on 2023-01-04
          program call               : xtb init.xyz --opt -c 1 -u 0 -P 16 --alpb water

   ID    Z sym.   atoms
    1    7 N      1
    2    6 C      2-9
    3    1 H      10-21

      * Solvation model:               ALPB
        Solvent                        water
        Solvent mass                       1.8000E+01 g/mol
          :  Hamiltonian                  GFN2-xTB          :
 * total energy  :   -25.8285009 Eh     change       -0.3737952E-09 Eh
 * total energy  :   -25.8302672 Eh     change       -0.1766297E-02 Eh
 * total energy  :   -25.8304506 Eh     change       -0.1834318E-03 Eh
 * total energy  :   -25.8304894 Eh     change       -0.3877960E-04 Eh
 * total energy  :   -25.8305285 Eh     change       -0.3913479E-04 Eh
 * total energy  :   -25.8305486 Eh     change       -0.2013440E-04 Eh
 * total energy  :   -25.8305894 Eh     change       -0.4073506E-04 Eh
 * total energy  :   -25.8306110 Eh     change       -0.2157127E-04 Eh
 * total energy  :   -25.8306311 Eh     change       -0.2011347E-04 Eh
 * total energy  :   -25.8306559 Eh     change       -0.2486252E-04 Eh
 * total energy  :   -25.8307841 Eh     change       -0.2213568E-04 Eh
 * total energy  :   -25.8308230 Eh     change       -0.3890711E-04 Eh
 * total energy  :   -25.8308409 Eh     change       -0.1784764E-04 Eh
 * total energy  :   -25.8308543 Eh     change       -0.1337815E-04 Eh
 * total energy  :   -25.8308656 Eh     change       -0.1129480E-04 Eh
 * total energy  :   -25.8308724 Eh     change       -0.6865319E-05 Eh
 * total energy  :   -25.8308777 Eh     change       -0.5285836E-05 Eh
 * total energy  :   -25.8308836 Eh     change       -0.5853499E-05 Eh
 * total energy  :   -25.8308855 Eh     change       -0.1904981E-05 Eh
   *** GEOMETRY OPTIMIZATION CONVERGED AFTER 22 ITERATIONS ***

 final structure:
================
21
 xtb: 6.5.1 (fef0646)
N            2.92280430327480        1.06703483645476       -0.06899864554940
C            2.51108184393796       -0.05635435315624        0.80738745787380
C            2.97121346010200       -1.38322822845483        0.20450537388477
C            4.47494349161350       -1.48039514804606        0.18205054352646
C            5.17318430475679       -1.75193163889483        1.35342243856151
C            6.55452043679941       -1.82235699466117        1.34893580205189
C            7.25729114797450       -1.62113361325439        0.17140668055447
C            6.57145819209901       -1.35038031051740       -1.00015807124497
C            5.18829260553274       -1.27576898044499       -0.99312609725716
H            2.69307378095250        1.97189030227930        0.35672192600263
H            2.45209644240926        0.99933410091430       -0.97901169679586
H            3.93698606167336        1.01825802501437       -0.22888895368844
H            1.42717605675502       -0.05182443254007        0.91378085865487
H            2.96446682740630        0.07440622378120        1.78972923571511
H            2.57735361158095       -1.49434229647502       -0.80557583230902
H            2.56902442756970       -2.19537264383536        0.80917953075911
H            4.63420932405283       -1.92443617652071        2.27324701090899
H            7.08754092913200       -2.04172469938020        2.26238736253215
H            8.33555470247186       -1.68354209668491        0.16728743133834
H            7.11650923090444       -1.20126151626212       -1.92046591041474
H            4.66713881900114       -1.08518035931561       -1.91974644510423

          :  Hamiltonian                  GFN2-xTB          :
         :: total energy             -25.830885465238 Eh    ::
         :: gradient norm              0.000191465857 Eh/a0 ::
         :: HOMO-LUMO gap              4.765231378442 eV    ::
         :: SCC energy               -26.282975605615 Eh    ::
         :: -> dispersion             -0.015053386674 Eh    ::
         :: -> Gsolv                  -0.116509451577 Eh    ::
         :: repulsion energy           0.451993941570 Eh    ::

    * Orbital Energies and Occupations

         #    Occupation            Energy/Eh            Energy/eV
      -------------------------------------------------------------
         1        2.0000           -0.6933626             -18.8674
       ...           ...                  ...                  ...
        12        2.0000           -0.5276568             -14.3583
        13        2.0000           -0.5074774             -13.8092
        14        2.0000           -0.5004731             -13.6186
        15        2.0000           -0.4926954             -13.4069
        16        2.0000           -0.4863850             -13.2352
        17        2.0000           -0.4776515             -12.9976
        18        2.0000           -0.4702223             -12.7954
        19        2.0000           -0.4645014             -12.6397
        20        2.0000           -0.4550388             -12.3822
        21        2.0000           -0.4243698             -11.5477
        22        2.0000           -0.4210975             -11.4586
        23        2.0000           -0.4060592             -11.0494
        24        2.0000           -0.4010125             -10.9121 (HOMO)
        25                         -0.2258935              -6.1469 (LUMO)
        26                         -0.2248502              -6.1185
        27                         -0.0969470              -2.6381
        28                         -0.0460627              -1.2534
        29                          0.0586261               1.5953
        30                          0.0825500               2.2463
        31                          0.1004972               2.7347
        32                          0.1157297               3.1492
        33                          0.1252702               3.4088
        34                          0.1383714               3.7653
        35                          0.1598264               4.3491
       ...                                ...                  ...
        48                          0.6604451              17.9716
      -------------------------------------------------------------
                  HL-Gap            0.1751190 Eh            4.7652 eV

     #   Z          covCN         q      C6AA      α(0)
     1   7 N        3.485    -0.155    24.332     7.326
     2   6 C        3.733    -0.036    21.316     6.590
     3   6 C        3.809    -0.095    22.303     6.723
     4   6 C        2.970     0.009    27.805     8.649
     5   6 C        2.924    -0.045    29.119     8.849
     6   6 C        2.919    -0.034    28.839     8.806
     7   6 C        2.920    -0.035    28.881     8.813
     8   6 C        2.918    -0.036    28.893     8.815
     9   6 C        2.924    -0.053    29.311     8.878
    10   1 H        0.859     0.317     0.665     1.277
    11   1 H        0.859     0.310     0.685     1.297
    12   1 H        0.859     0.294     0.733     1.341
    13   1 H        0.925     0.117     1.641     2.003
    14   1 H        0.925     0.109     1.705     2.042
    15   1 H        0.925     0.080     1.977     2.199
    16   1 H        0.925     0.081     1.972     2.196
    17   1 H        0.926     0.046     2.374     2.409
    18   1 H        0.926     0.024     2.672     2.556
    19   1 H        0.926     0.018     2.759     2.597
    20   1 H        0.926     0.029     2.598     2.521
    21   1 H        0.926     0.055     2.253     2.347

Wiberg/Mayer (AO) data.
largest (>0.10) Wiberg bond orders for each atom

     #   Z sym  total        # sym  WBO       # sym  WBO       # sym  WBO
 ---------------------------------------------------------------------------
     1   7 N    3.657 --     2 C    0.965    12 H    0.893    11 H    0.889
                            10 H    0.886
     2   6 C    3.926 --     3 C    0.999    14 H    0.966     1 N    0.965
                            13 H    0.965
     3   6 C    3.988 --     4 C    1.009     2 C    0.999    15 H    0.968
                            16 H    0.960
     4   6 C    3.988 --     9 C    1.416     5 C    1.407     3 C    1.009
                             7 C    0.109
     5   6 C    3.990 --     6 C    1.450     4 C    1.407    17 H    0.968
                             8 C    0.113
     6   6 C    3.992 --     5 C    1.450     7 C    1.434    18 H    0.972
                             9 C    0.110
     7   6 C    3.993 --     8 C    1.444     6 C    1.434    19 H    0.972
                             4 C    0.109
     8   6 C    3.992 --     7 C    1.444     9 C    1.437    20 H    0.971
                             5 C    0.113
     9   6 C    3.988 --     8 C    1.437     4 C    1.416    21 H    0.966
                             6 C    0.110
    10   1 H    0.899 --     1 N    0.886
    11   1 H    0.904 --     1 N    0.889
    12   1 H    0.914 --     1 N    0.893
    13   1 H    0.986 --     2 C    0.965
    14   1 H    0.988 --     2 C    0.966
    15   1 H    0.993 --     3 C    0.968
    16   1 H    0.993 --     3 C    0.960
    17   1 H    0.998 --     5 C    0.968
    18   1 H    0.999 --     6 C    0.972
    19   1 H    0.999 --     7 C    0.972
    20   1 H    0.999 --     8 C    0.971
    21   1 H    0.997 --     9 C    0.966
 ---------------------------------------------------------------------------

molecular dipole:
                 x           y           z       tot (Debye)
 q only:        5.045       1.783      -0.031
   full:        5.328       1.766      -0.068      14.269

           -------------------------------------------------
          | TOTAL ENERGY              -25.830885465238 Eh   |
          | GRADIENT NORM               0.000191465857 Eh/α |
          | HOMO-LUMO GAP               4.765231378442 eV   |
           -------------------------------------------------

 * finished run on 2023/01/24 at 15:49:58.919
