   * xtb version 6.5.1 (fef0646) compiled by 'conda@b96dff2e9fd6' on 2023-01-04
          program call               : xtb init.xyz --opt -c 1 -u 0 -P 16 --alpb water

   ID    Z sym.   atoms
    1    7 N      1
    2    6 C      2, 3
    3    9 F      4
    4    1 H      5-11

      * Solvation model:               ALPB
        Solvent                        water
        Solvent mass                       1.8000E+01 g/mol
          :  Hamiltonian                  GFN2-xTB          :
 * total energy  :   -15.1688684 Eh     change       -0.2633982E-09 Eh
 * total energy  :   -15.1703461 Eh     change       -0.1477735E-02 Eh
 * total energy  :   -15.1707954 Eh     change       -0.4493019E-03 Eh
 * total energy  :   -15.1708589 Eh     change       -0.6346448E-04 Eh
 * total energy  :   -15.1709160 Eh     change       -0.5708028E-04 Eh
 * total energy  :   -15.1709450 Eh     change       -0.2908839E-04 Eh
 * total energy  :   -15.1709636 Eh     change       -0.1858218E-04 Eh
 * total energy  :   -15.1709760 Eh     change       -0.1242518E-04 Eh
 * total energy  :   -15.1709792 Eh     change       -0.3152891E-05 Eh
   *** GEOMETRY OPTIMIZATION CONVERGED AFTER 9 ITERATIONS ***

 final structure:
================
11
 xtb: 6.5.1 (fef0646)
N            1.05478309339646       -0.01699839592431        0.03083598324911
C            2.53666558272080       -0.02763521226797        0.06441474187252
C            3.05236701016706       -1.33606043476087        0.63991735479696
F            2.68239234938916       -1.42158271951422        1.97909879406997
H            0.70595645177523        0.88946042301788       -0.30393247048773
H            0.68563197432786       -0.18221845779487        0.97698937293043
H            0.69759579345483       -0.75648893242179       -0.58747394676843
H            2.88835669549424        0.79548745004644        0.68782905569729
H            2.93553827159524        0.08986052612992       -0.94220995968497
H            4.14164415964488       -1.38182220463216        0.61383136381391
H            2.62539861803424       -2.21660204187804        0.15517971051094

          :  Hamiltonian                  GFN2-xTB          :
         :: total energy             -15.170979198789 Eh    ::
         :: gradient norm              0.000227162451 Eh/a0 ::
         :: HOMO-LUMO gap             11.024119465529 eV    ::
         :: SCC energy               -15.317149356080 Eh    ::
         :: -> dispersion             -0.003324914180 Eh    ::
         :: -> Gsolv                  -0.126650494341 Eh    ::
         :: repulsion energy           0.146168455120 Eh    ::

    * Orbital Energies and Occupations

         #    Occupation            Energy/Eh            Energy/eV
      -------------------------------------------------------------
         1        2.0000           -0.8218383             -22.3634
         2        2.0000           -0.7051975             -19.1894
         3        2.0000           -0.6601019             -17.9623
         4        2.0000           -0.6260821             -17.0366
         5        2.0000           -0.5977325             -16.2651
         6        2.0000           -0.5936279             -16.1534
         7        2.0000           -0.5751572             -15.6508
         8        2.0000           -0.5539262             -15.0731
         9        2.0000           -0.5425974             -14.7648
        10        2.0000           -0.5233003             -14.2397
        11        2.0000           -0.4885257             -13.2935
        12        2.0000           -0.4734226             -12.8825
        13        2.0000           -0.4645903             -12.6421 (HOMO)
        14                         -0.0594614              -1.6180 (LUMO)
        15                          0.0108475               0.2952
        16                          0.0519017               1.4123
        17                          0.0706495               1.9225
        18                          0.1093338               2.9751
        19                          0.1292443               3.5169
        20                          0.1589662               4.3257
        21                          0.1898469               5.1660
        22                          0.2265245               6.1640
        23                          0.2470263               6.7219
      -------------------------------------------------------------
                  HL-Gap            0.4051289 Eh           11.0241 eV

     #   Z          covCN         q      C6AA      α(0)
     1   7 N        3.484    -0.156    24.370     7.332
     2   6 C        3.731    -0.046    21.502     6.619
     3   6 C        3.608     0.078    19.781     6.425
     4   9 F        0.783    -0.303    12.356     4.152
     5   1 H        0.859     0.324     0.645     1.258
     6   1 H        0.859     0.311     0.680     1.292
     7   1 H        0.859     0.315     0.671     1.283
     8   1 H        0.924     0.134     1.507     1.920
     9   1 H        0.925     0.138     1.479     1.902
    10   1 H        0.924     0.101     1.779     2.086
    11   1 H        0.924     0.105     1.739     2.062

Wiberg/Mayer (AO) data.
largest (>0.10) Wiberg bond orders for each atom

     #   Z sym  total        # sym  WBO       # sym  WBO       # sym  WBO
 ---------------------------------------------------------------------------
     1   7 N    3.652 --     2 C    0.976     6 H    0.889     7 H    0.886
                             5 H    0.882
     2   6 C    3.928 --     3 C    1.015     1 N    0.976     8 H    0.959
                             9 H    0.957
     3   6 C    3.865 --     2 C    1.015    10 H    0.964    11 H    0.962
                             4 F    0.904
     4   9 F    0.958 --     3 C    0.904
     5   1 H    0.895 --     1 N    0.882
     6   1 H    0.903 --     1 N    0.889
     7   1 H    0.901 --     1 N    0.886
     8   1 H    0.982 --     2 C    0.959
     9   1 H    0.981 --     2 C    0.957
    10   1 H    0.990 --     3 C    0.964
    11   1 H    0.989 --     3 C    0.962
 ---------------------------------------------------------------------------

molecular dipole:
                 x           y           z       tot (Debye)
 q only:        2.433       0.134      -0.938
   full:        2.359       0.091      -0.956       6.473

           -------------------------------------------------
          | TOTAL ENERGY              -15.170979198789 Eh   |
          | GRADIENT NORM               0.000227162451 Eh/α |
          | HOMO-LUMO GAP              11.024119465529 eV   |
           -------------------------------------------------

 * finished run on 2023/01/24 at 14:58:03.901
