   * xtb version 6.5.1 (fef0646) compiled by 'conda@b96dff2e9fd6' on 2023-01-04
          program call               : xtb init.xyz --opt -c 1 -u 0 -P 16 --alpb water

   ID    Z sym.   atoms
    1    7 N      1, 16, 19
    2    6 C      2-15, 17, 18, 20-25
    3   16 S      26-29
    4    1 H      30-47

      * Solvation model:               ALPB
        Solvent                        water
        Solvent mass                       1.8000E+01 g/mol
          :  Hamiltonian                  GFN2-xTB          :
 * total energy  :   -77.6403065 Eh     change       -0.2074131E-08 Eh
 * total energy  :   -77.6507939 Eh     change       -0.1048734E-01 Eh
 * total energy  :   -77.6525295 Eh     change       -0.1735661E-02 Eh
 * total energy  :   -77.6537340 Eh     change       -0.1204493E-02 Eh
 * total energy  :   -77.6546419 Eh     change       -0.9078566E-03 Eh
 * total energy  :   -77.6549888 Eh     change       -0.3469403E-03 Eh
 * total energy  :   -77.6554283 Eh     change       -0.4394417E-03 Eh
 * total energy  :   -77.6558894 Eh     change       -0.4610919E-03 Eh
 * total energy  :   -77.6562637 Eh     change       -0.3743873E-03 Eh
 * total energy  :   -77.6565761 Eh     change       -0.3123846E-03 Eh
 * total energy  :   -77.6637393 Eh     change       -0.1715335E-04 Eh
 * total energy  :   -77.6637515 Eh     change       -0.1220742E-04 Eh
 * total energy  :   -77.6637578 Eh     change       -0.6294612E-05 Eh
 * total energy  :   -77.6637576 Eh     change        0.1265820E-06 Eh
 * total energy  :   -77.6637623 Eh     change       -0.4684259E-05 Eh
 * total energy  :   -77.6637660 Eh     change       -0.3679337E-05 Eh
 * total energy  :   -77.6637615 Eh     change        0.4535930E-05 Eh
 * total energy  :   -77.6637724 Eh     change       -0.1094410E-04 Eh
 * total energy  :   -77.6637765 Eh     change       -0.4053048E-05 Eh
   *** GEOMETRY OPTIMIZATION CONVERGED AFTER 73 ITERATIONS ***

 final structure:
================
47
 xtb: 6.5.1 (fef0646)
N            5.35051780813621       -0.34543941508886        3.84375573577323
C            4.19641560989343       -0.21727353107412        2.92573772455184
C            3.93948956052557        1.24153590112801        2.57054023400480
C            5.01439265009338        1.85559724303357        1.73317796775251
C            5.11112306222822        3.15555505187642        1.32571512369074
C            6.23140837046730        3.40833253265057        0.51657592244559
C            7.01164901437777        2.29945173048547        0.29813693530707
C            8.20553285529285        2.17299698214740       -0.46177579566384
C            8.96412571242428        1.04363755261899       -0.66451141506820
C           10.08752466099124        1.24663219154814       -1.47478370546648
C           11.03790925243510        0.15608382319297       -1.81834048820004
C           10.19379850154928        2.56536657970878       -1.90317287335058
C           11.18123009308876        3.15465024370192       -2.73002062297841
C           11.28027544990868        4.47726768101636       -3.14757428958847
C           10.39638839692432        5.50742192652654       -2.81758873763443
N            9.68994481521965        6.38045456092622       -2.56253716506527
C           12.41229294846504        4.72422747950056       -3.98706237512077
C           12.64215155775966        6.00459491836672       -4.50125242669206
N           12.76774505201909        7.07763691318866       -4.89818312703420
C           13.18527757667790        3.59627607621548       -4.21775423393587
C           14.37519374009904        3.48047688029336       -4.98701359760175
C           15.11156796068309        2.34392439262643       -5.28084475508652
C           14.78461159673554        0.96006378176509       -4.84114843201009
C           16.24032921894057        2.64439861277567       -6.07283241896996
C           16.36102041621721        3.96392235577521       -6.37005521549747
S           15.09596894516278        4.91063824349497       -5.69913117374696
S           12.50083163934437        2.23105608244346       -3.39111577173031
S            8.88166523233228        3.55149900239641       -1.28852801648959
S            6.33851532976357        0.92303924889414        1.09820688048980
H            5.52150529811669       -1.33044519445890        4.07147821444358
H            5.18372381941753        0.17504862142132        4.71172103350113
H            6.18919111206378        0.03433611055388        3.38536055759221
H            3.30950983868987       -0.63053399212636        3.40419346413794
H            4.40681215339349       -0.77901882803669        2.01576060796989
H            3.80684522603816        1.84360288799973        3.47188188730976
H            3.00034467999530        1.30329731950251        2.01608552484840
H            4.40081647715490        3.91727993660541        1.59148531723635
H            6.47456663782988        4.36871247173056        0.09487127296785
H            8.71423313538854        0.08709785498995       -0.24075410475858
H           10.72417861943308       -0.76962060482278       -1.34670394309930
H           12.04382731933523        0.40223032705989       -1.48160190549222
H           11.07797844541044        0.00694240941805       -2.89641579799147
H           13.78364849339327        0.67726369716906       -5.16387542369868
H           14.82307718745092        0.88159395209632       -3.75541798098048
H           15.50012857742609        0.26353203955483       -5.26650451931177
H           16.93772891749596        1.89868240074462       -6.40745586894167
H           17.11953703424279        4.45235354844616       -6.94798822282465

          :  Hamiltonian                  GFN2-xTB          :
         :: total energy             -77.663776460999 Eh    ::
         :: gradient norm              0.000853671288 Eh/a0 ::
         :: HOMO-LUMO gap              1.654213593949 eV    ::
         :: SCC energy               -78.905014120811 Eh    ::
         :: -> dispersion             -0.063869301027 Eh    ::
         :: -> Gsolv                  -0.160963290675 Eh    ::
         :: repulsion energy           1.241861995635 Eh    ::

    * Orbital Energies and Occupations

         #    Occupation            Energy/Eh            Energy/eV
      -------------------------------------------------------------
         1        2.0000           -0.7597113             -20.6728
       ...           ...                  ...                  ...
        60        2.0000           -0.4554749             -12.3941
        61        2.0000           -0.4526826             -12.3181
        62        2.0000           -0.4496458             -12.2355
        63        2.0000           -0.4483819             -12.2011
        64        2.0000           -0.4429659             -12.0537
        65        2.0000           -0.4412984             -12.0083
        66        2.0000           -0.4247871             -11.5590
        67        2.0000           -0.4197237             -11.4213
        68        2.0000           -0.4081211             -11.1055
        69        2.0000           -0.4063988             -11.0587
        70        2.0000           -0.4062485             -11.0546
        71        2.0000           -0.3934922             -10.7075
        72        2.0000           -0.3697774             -10.0622 (HOMO)
        73                         -0.3089862              -8.4079 (LUMO)
        74                         -0.2971960              -8.0871
        75                         -0.2645703              -7.1993
        76                         -0.2473514              -6.7308
        77                         -0.2395974              -6.5198
        78                         -0.2368025              -6.4437
        79                         -0.2283928              -6.2149
        80                         -0.2218975              -6.0381
        81                         -0.2197663              -5.9801
        82                         -0.2087570              -5.6806
        83                         -0.1941941              -5.2843
       ...                                ...                  ...
       154                          1.1702186              31.8433
      -------------------------------------------------------------
                  HL-Gap            0.0607912 Eh            1.6542 eV

     #   Z          covCN         q      C6AA      α(0)
     1   7 N        3.485    -0.165    24.550     7.359
     2   6 C        3.734    -0.049    21.549     6.625
     3   6 C        3.821    -0.095    22.302     6.721
     4   6 C        2.983     0.030    27.321     8.574
     5   6 C        3.113    -0.062    29.369     8.878
     6   6 C        3.120    -0.046    28.959     8.813
     7   6 C        3.021     0.004    27.902     8.665
     8   6 C        3.026     0.035    27.185     8.552
     9   6 C        3.090    -0.066    29.535     8.908
    10   6 C        3.109     0.017    27.490     8.590
    11   6 C        3.758    -0.137    23.188     6.865
    12   6 C        3.022     0.005    27.876     8.660
    13   6 C        3.014     0.024    27.449     8.594
    14   6 C        3.151    -0.017    28.135     8.676
    15   6 C        1.910     0.120    28.147     8.568
    16   7 N        0.911    -0.312    28.018     7.655
    17   6 C        3.153    -0.013    28.054     8.662
    18   6 C        1.908     0.119    28.172     8.572
    19   7 N        0.911    -0.306    27.879     7.636
    20   6 C        3.011     0.024    27.456     8.595
    21   6 C        3.026     0.006    27.865     8.659
    22   6 C        3.122     0.014    27.528     8.592
    23   6 C        3.758    -0.133    23.113     6.854
    24   6 C        3.108    -0.054    29.195     8.853
    25   6 C        2.933    -0.013    28.341     8.731
    26  16 S        2.300    -0.069   143.929    20.192
    27  16 S        2.366     0.042   139.352    19.868
    28  16 S        2.314    -0.104   145.398    20.295
    29  16 S        2.379     0.004   140.897    19.978
    30   1 H        0.859     0.324     0.647     1.260
    31   1 H        0.859     0.313     0.676     1.288
    32   1 H        0.859     0.305     0.699     1.310
    33   1 H        0.925     0.130     1.536     1.938
    34   1 H        0.925     0.130     1.534     1.937
    35   1 H        0.924     0.109     1.704     2.041
    36   1 H        0.924     0.108     1.715     2.048
    37   1 H        0.926     0.050     2.316     2.380
    38   1 H        0.926     0.019     2.753     2.595
    39   1 H        0.926     0.086     1.916     2.164
    40   1 H        0.925     0.088     1.896     2.153
    41   1 H        0.925     0.078     1.996     2.209
    42   1 H        0.925     0.077     2.009     2.216
    43   1 H        0.925     0.079     1.984     2.203
    44   1 H        0.925     0.083     1.944     2.180
    45   1 H        0.925     0.079     1.992     2.207
    46   1 H        0.926     0.070     2.087     2.259
    47   1 H        0.926     0.068     2.107     2.270

Wiberg/Mayer (AO) data.
largest (>0.10) Wiberg bond orders for each atom

     #   Z sym  total        # sym  WBO       # sym  WBO       # sym  WBO
 ---------------------------------------------------------------------------
     1   7 N    3.649 --     2 C    0.971    31 H    0.887    30 H    0.882
                            32 H    0.880
     2   6 C    3.925 --     3 C    1.013     1 N    0.971    33 H    0.961
                            34 H    0.956
     3   6 C    3.982 --     4 C    1.027     2 C    1.013    35 H    0.945
                            36 H    0.939
     4   6 C    3.922 --     5 C    1.557    29 S    1.163     3 C    1.027
     5   6 C    3.982 --     4 C    1.557     6 C    1.315    37 H    0.962
     6   6 C    3.968 --     7 C    1.494     5 C    1.315    38 H    0.962
     7   6 C    3.954 --     6 C    1.494     8 C    1.174    29 S    1.109
     8   6 C    3.928 --     9 C    1.460     7 C    1.174    28 S    1.122
     9   6 C    3.974 --     8 C    1.460    10 C    1.329    39 H    0.955
    10   6 C    3.972 --    12 C    1.398     9 C    1.329    11 C    1.038
    11   6 C    3.986 --    10 C    1.038    40 H    0.975    41 H    0.953
                            42 H    0.953
    12   6 C    3.922 --    10 C    1.398    13 C    1.217    28 S    1.096
    13   6 C    3.948 --    14 C    1.372    12 C    1.217    27 S    1.129
    14   6 C    3.956 --    13 C    1.372    17 C    1.161    15 C    1.138
    15   6 C    3.939 --    16 N    2.730    14 C    1.138
    16   7 N    2.969 --    15 C    2.730
    17   6 C    3.972 --    20 C    1.392    14 C    1.161    18 C    1.130
    18   6 C    3.939 --    19 N    2.740    17 C    1.130
    19   7 N    2.968 --    18 C    2.740
    20   6 C    3.950 --    17 C    1.392    21 C    1.196    27 S    1.132
    21   6 C    3.937 --    22 C    1.436    20 C    1.196    26 S    1.106
    22   6 C    3.957 --    21 C    1.436    24 C    1.281    23 C    1.036
    23   6 C    3.987 --    22 C    1.036    45 H    0.977    43 H    0.956
                            44 H    0.953
    24   6 C    3.983 --    25 C    1.597    22 C    1.281    46 H    0.960
    25   6 C    3.930 --    24 C    1.597    26 S    1.201    47 H    0.966
    26  16 S    2.612 --    25 C    1.201    21 C    1.106
    27  16 S    2.662 --    20 C    1.132    13 C    1.129
    28  16 S    2.561 --     8 C    1.122    12 C    1.096
    29  16 S    2.597 --     4 C    1.163     7 C    1.109
    30   1 H    0.895 --     1 N    0.882
    31   1 H    0.902 --     1 N    0.887
    32   1 H    0.907 --     1 N    0.880
    33   1 H    0.983 --     2 C    0.961
    34   1 H    0.983 --     2 C    0.956
    35   1 H    0.985 --     3 C    0.945
    36   1 H    0.985 --     3 C    0.939
    37   1 H    0.997 --     5 C    0.962
    38   1 H    0.999 --     6 C    0.962
    39   1 H    0.992 --     9 C    0.955
    40   1 H    0.991 --    11 C    0.975
    41   1 H    0.992 --    11 C    0.953
    42   1 H    0.992 --    11 C    0.953
    43   1 H    0.992 --    23 C    0.956
    44   1 H    0.991 --    23 C    0.953
    45   1 H    0.992 --    23 C    0.977
    46   1 H    0.995 --    24 C    0.960
    47   1 H    0.994 --    25 C    0.966
 ---------------------------------------------------------------------------

molecular dipole:
                 x           y           z       tot (Debye)
 q only:        9.762      -6.284       8.594
   full:       10.583      -5.359       7.676      35.914

           -------------------------------------------------
          | TOTAL ENERGY              -77.663776460999 Eh   |
          | GRADIENT NORM               0.000853671288 Eh/α |
          | HOMO-LUMO GAP               1.654213593949 eV   |
           -------------------------------------------------

 * finished run on 2023/01/24 at 14:56:43.095
