   * xtb version 6.5.1 (fef0646) compiled by 'conda@b96dff2e9fd6' on 2023-01-04
          program call               : xtb init.xyz --opt -c 1 -u 0 -P 16

   ID    Z sym.   atoms
    1    7 N      1
    2    6 C      2-8
    3    1 H      9-24

          :  Hamiltonian                  GFN2-xTB          :
 * total energy  :   -25.6575669 Eh     change       -0.1485567E-09 Eh
 * total energy  :   -25.6592009 Eh     change       -0.1633955E-02 Eh
 * total energy  :   -25.6599459 Eh     change       -0.7450259E-03 Eh
 * total energy  :   -25.6601759 Eh     change       -0.2299582E-03 Eh
 * total energy  :   -25.6602747 Eh     change       -0.9880386E-04 Eh
 * total energy  :   -25.6603213 Eh     change       -0.4664662E-04 Eh
 * total energy  :   -25.6603702 Eh     change       -0.4885870E-04 Eh
 * total energy  :   -25.6603973 Eh     change       -0.2710921E-04 Eh
 * total energy  :   -25.6604134 Eh     change       -0.1610208E-04 Eh
 * total energy  :   -25.6604215 Eh     change       -0.8090109E-05 Eh
 * total energy  :   -25.6604256 Eh     change       -0.4068135E-05 Eh
   *** GEOMETRY OPTIMIZATION CONVERGED AFTER 11 ITERATIONS ***

 final structure:
================
24
 xtb: 6.5.1 (fef0646)
N            1.07857505297108        0.06105655679039       -0.31821056415599
C            2.51768002220584        0.03099875463728        0.08682217264593
C            2.80520230528724        1.12075612752478        1.12108345935379
C            1.99987237269499        0.92870339605237        2.40935517014565
C            2.43389101969378        1.96779145735500        3.44437750286618
C            2.23971683477969        3.37957241514125        2.89950747713743
C            3.00960248228824        3.56717207420494        1.59579678457604
C            2.57498630722888        2.52755400103808        0.56172804227948
H            0.86607416818415       -0.64516695725313       -1.03139618180828
H            0.86330052352196        1.00034595810431       -0.68303067178711
H            0.49883655723581       -0.10314602451754        0.51680736114215
H            3.12830849463516        0.18427411185339       -0.80408725588440
H            2.73795492548304       -0.95406670294244        0.50036362076542
H            3.86584533638386        1.03105403597569        1.37345589983788
H            2.16022452809478       -0.07431844658754        2.80950225599235
H            0.92893779207982        1.06386799222203        2.22558211066331
H            3.48480421212733        1.81318089993892        3.69222566379566
H            1.85326075007883        1.83850785726990        4.35765119404252
H            2.58595212659255        4.10456785577697        3.63459843014526
H            1.17679401203822        3.56477345227801        2.72864413028237
H            4.07875323766766        3.46243415035889        1.78471294396029
H            2.83697458110231        4.56878821255904        1.20238564424078
H            3.14591769712562        2.66672051906132       -0.35832591872542
H            1.51490466049904        2.69360830315819        0.34200072848872

          :  Hamiltonian                  GFN2-xTB          :
         :: total energy             -25.660425556270 Eh    ::
         :: gradient norm              0.000689546012 Eh/a0 ::
         :: HOMO-LUMO gap              7.637094841930 eV    ::
         :: SCC energy               -26.028111189184 Eh    ::
         :: -> dispersion             -0.015692562554 Eh    ::
         :: repulsion energy           0.367574277970 Eh    ::

    * Orbital Energies and Occupations

         #    Occupation            Energy/Eh            Energy/eV
      -------------------------------------------------------------
         1        2.0000           -0.8904236             -24.2297
       ...           ...                  ...                  ...
        12        2.0000           -0.6706492             -18.2493
        13        2.0000           -0.6599706             -17.9587
        14        2.0000           -0.6374344             -17.3455
        15        2.0000           -0.6321734             -17.2023
        16        2.0000           -0.6211700             -16.9029
        17        2.0000           -0.6026412             -16.3987
        18        2.0000           -0.5974500             -16.2574
        19        2.0000           -0.5953472             -16.2002
        20        2.0000           -0.5822579             -15.8440
        21        2.0000           -0.5650158             -15.3749
        22        2.0000           -0.5433718             -14.7859
        23        2.0000           -0.5399926             -14.6939
        24        2.0000           -0.5386755             -14.6581 (HOMO)
        25                         -0.2580174              -7.0210 (LUMO)
        26                         -0.1573922              -4.2829
        27                         -0.1094687              -2.9788
        28                         -0.1003209              -2.7299
        29                         -0.0837407              -2.2787
        30                         -0.0647469              -1.7619
        31                         -0.0464687              -1.2645
        32                         -0.0206837              -0.5628
        33                         -0.0189826              -0.5165
        34                         -0.0103139              -0.2807
        35                          0.0088115               0.2398
       ...                                ...                  ...
        48                          0.1878918               5.1128
      -------------------------------------------------------------
                  HL-Gap            0.2806581 Eh            7.6371 eV

     #   Z          covCN         q      C6AA      α(0)
     1   7 N        3.483    -0.130    23.802     7.246
     2   6 C        3.732    -0.039    21.360     6.597
     3   6 C        3.857    -0.039    21.226     6.552
     4   6 C        3.806    -0.070    21.842     6.653
     5   6 C        3.806    -0.062    21.695     6.631
     6   6 C        3.806    -0.065    21.746     6.639
     7   6 C        3.806    -0.062    21.694     6.631
     8   6 C        3.806    -0.070    21.836     6.652
     9   1 H        0.859     0.266     0.825     1.423
    10   1 H        0.859     0.273     0.799     1.401
    11   1 H        0.859     0.273     0.801     1.402
    12   1 H        0.924     0.101     1.772     2.082
    13   1 H        0.924     0.101     1.773     2.082
    14   1 H        0.924     0.086     1.920     2.167
    15   1 H        0.924     0.043     2.415     2.430
    16   1 H        0.924     0.028     2.619     2.531
    17   1 H        0.924     0.050     2.323     2.384
    18   1 H        0.925     0.052     2.297     2.370
    19   1 H        0.925     0.054     2.270     2.356
    20   1 H        0.924     0.039     2.456     2.451
    21   1 H        0.924     0.050     2.322     2.383
    22   1 H        0.925     0.052     2.297     2.370
    23   1 H        0.924     0.043     2.411     2.428
    24   1 H        0.924     0.027     2.623     2.533

Wiberg/Mayer (AO) data.
largest (>0.10) Wiberg bond orders for each atom

     #   Z sym  total        # sym  WBO       # sym  WBO       # sym  WBO
 ---------------------------------------------------------------------------
     1   7 N    3.675 --     2 C    0.924     9 H    0.916    11 H    0.901
                            10 H    0.899
     2   6 C    3.887 --     3 C    0.991    13 H    0.968    12 H    0.968
                             1 N    0.924
     3   6 C    3.978 --     8 C    0.995     4 C    0.995     2 C    0.991
                            14 H    0.952
     4   6 C    3.995 --     5 C    1.004     3 C    0.995    15 H    0.976
                            16 H    0.970
     5   6 C    3.993 --     6 C    1.010     4 C    1.004    17 H    0.976
                            18 H    0.975
     6   6 C    3.996 --     7 C    1.010     5 C    1.010    20 H    0.977
                            19 H    0.975
     7   6 C    3.993 --     6 C    1.010     8 C    1.004    21 H    0.976
                            22 H    0.975
     8   6 C    3.995 --     7 C    1.004     3 C    0.995    23 H    0.976
                            24 H    0.968
     9   1 H    0.929 --     1 N    0.916
    10   1 H    0.925 --     1 N    0.899
    11   1 H    0.926 --     1 N    0.901
    12   1 H    0.989 --     2 C    0.968
    13   1 H    0.989 --     2 C    0.968
    14   1 H    0.993 --     3 C    0.952
    15   1 H    0.998 --     4 C    0.976
    16   1 H    0.999 --     4 C    0.970
    17   1 H    0.997 --     5 C    0.976
    18   1 H    0.997 --     5 C    0.975
    19   1 H    0.997 --     6 C    0.975
    20   1 H    0.998 --     6 C    0.977
    21   1 H    0.997 --     7 C    0.976
    22   1 H    0.997 --     7 C    0.975
    23   1 H    0.998 --     8 C    0.976
    24   1 H    0.999 --     8 C    0.968
 ---------------------------------------------------------------------------

molecular dipole:
                 x           y           z       tot (Debye)
 q only:        2.790       0.748       0.170
   full:        2.559       0.625      -0.006       6.695

           -------------------------------------------------
          | TOTAL ENERGY              -25.660425556270 Eh   |
          | GRADIENT NORM               0.000689546012 Eh/α |
          | HOMO-LUMO GAP               7.637094841930 eV   |
           -------------------------------------------------

 * finished run on 2023/01/23 at 13:47:44.859
