   * xtb version 6.5.1 (fef0646) compiled by 'conda@b96dff2e9fd6' on 2023-01-04
          program call               : xtb init.xyz --opt -c 1 -u 0 -P 16

   ID    Z sym.   atoms
    1    7 N      1
    2    6 C      2-12, 14-18
    3    9 F      13
    4    1 H      19-35

          :  Hamiltonian                  GFN2-xTB          :
 * total energy  :   -50.1162198 Eh     change       -0.1529585E-09 Eh
 * total energy  :   -50.1195722 Eh     change       -0.3352432E-02 Eh
 * total energy  :   -50.1203901 Eh     change       -0.8179295E-03 Eh
 * total energy  :   -50.1208250 Eh     change       -0.4349204E-03 Eh
 * total energy  :   -50.1213397 Eh     change       -0.5146459E-03 Eh
 * total energy  :   -50.1217678 Eh     change       -0.4280783E-03 Eh
 * total energy  :   -50.1222174 Eh     change       -0.4496232E-03 Eh
 * total energy  :   -50.1226712 Eh     change       -0.4538653E-03 Eh
 * total energy  :   -50.1230834 Eh     change       -0.4121531E-03 Eh
 * total energy  :   -50.1234562 Eh     change       -0.3727965E-03 Eh
 * total energy  :   -50.1247222 Eh     change       -0.6522002E-04 Eh
 * total energy  :   -50.1247753 Eh     change       -0.5317086E-04 Eh
 * total energy  :   -50.1248170 Eh     change       -0.4165217E-04 Eh
 * total energy  :   -50.1248375 Eh     change       -0.2051440E-04 Eh
 * total energy  :   -50.1248682 Eh     change       -0.3065919E-04 Eh
 * total energy  :   -50.1248915 Eh     change       -0.2336886E-04 Eh
 * total energy  :   -50.1248998 Eh     change       -0.8264748E-05 Eh
 * total energy  :   -50.1249118 Eh     change       -0.1204887E-04 Eh
 * total energy  :   -50.1249158 Eh     change       -0.3982199E-05 Eh
   *** GEOMETRY OPTIMIZATION CONVERGED AFTER 26 ITERATIONS ***

 final structure:
================
35
 xtb: 6.5.1 (fef0646)
N            3.22033196267282       -2.05380431023637        1.94710262203701
C            2.51789957202354       -2.41453757405720        0.68043389112225
C            2.97697201379439       -1.43589480780161       -0.40417717620709
C            4.48108279688393       -1.47565431524933       -0.48209694261310
C            5.13158993158819       -2.39090238217149       -1.30319511883637
C            6.50754502814776       -2.48065317634887       -1.31124086022108
C            7.29265361707551       -1.66657667436383       -0.48527007365738
C            8.73973782074027       -1.71760614148501       -0.46270416006339
C            9.51620411569368       -2.28468807067101       -1.39865996606216
C           10.96567799479911       -2.31695189823780       -1.39600577012987
C           11.72291536188326       -2.01959341414175       -0.26061107589993
C           13.09939277017563       -2.06446567504322       -0.33584210771062
F           13.81153564011785       -1.78144111582183        0.77067051644142
C           13.76856147773918       -2.39076244112043       -1.50354551310104
C           13.01699089723487       -2.69042201167927       -2.62729757234460
C           11.63655942371640       -2.66160555851435       -2.57396396563044
C            6.63283977694872       -0.75895235444872        0.34881764182598
C            5.25245247649524       -0.66329120444535        0.35420696796633
H            3.27041517424631       -2.83288100644335        2.60950706015343
H            2.76495900593243       -1.25621091803266        2.40389304279874
H            4.18786104155526       -1.74881016985387        1.64071065883335
H            1.43906276128429       -2.38031386496746        0.82862088451965
H            2.80828027519435       -3.42904821072291        0.40478151686351
H            2.62926978367007       -0.42812743673823       -0.17180685133914
H            2.53657949852813       -1.73225190686894       -1.35457409836461
H            4.55040440937841       -3.02865249718337       -1.95241395178916
H            6.98133624530296       -3.19872693986625       -1.96060003777737
H            9.19734049920103       -1.20499365896707        0.37196487418395
H            9.05963358812910       -2.73408798904059       -2.27061434326169
H           11.26045957699169       -1.77197932523060        0.68101327478408
H           14.84613842851585       -2.41046017453428       -1.51853586122226
H           13.51494047461465       -2.95073522524663       -3.54829805553301
H           11.06347542776121       -2.89730465837210       -3.45849042087298
H            7.21224864936090       -0.10570332539231        0.98440042475453
H            4.78622248260311        0.12238043329664        0.93792054635329

          :  Hamiltonian                  GFN2-xTB          :
         :: total energy             -50.124915818492 Eh    ::
         :: gradient norm              0.000500939911 Eh/a0 ::
         :: HOMO-LUMO gap              2.565424868915 eV    ::
         :: SCC energy               -50.962866296678 Eh    ::
         :: -> dispersion             -0.031877152121 Eh    ::
         :: repulsion energy           0.838228935616 Eh    ::

    * Orbital Energies and Occupations

         #    Occupation            Energy/Eh            Energy/eV
      -------------------------------------------------------------
         1        2.0000           -0.8790703             -23.9207
       ...           ...                  ...                  ...
        34        2.0000           -0.5651272             -15.3779
        35        2.0000           -0.5607718             -15.2594
        36        2.0000           -0.5567716             -15.1505
        37        2.0000           -0.5451441             -14.8341
        38        2.0000           -0.5428252             -14.7710
        39        2.0000           -0.5396482             -14.6846
        40        2.0000           -0.5315695             -14.4647
        41        2.0000           -0.5292041             -14.4004
        42        2.0000           -0.5179510             -14.0942
        43        2.0000           -0.5108067             -13.8998
        44        2.0000           -0.5029860             -13.6869
        45        2.0000           -0.4821521             -13.1200
        46        2.0000           -0.4691386             -12.7659 (HOMO)
        47                         -0.3748609             -10.2005 (LUMO)
        48                         -0.3518971              -9.5756
        49                         -0.3186653              -8.6713
        50                         -0.3035150              -8.2591
        51                         -0.2643879              -7.1944
        52                         -0.2404653              -6.5434
        53                         -0.2046137              -5.5678
        54                         -0.1623853              -4.4187
        55                         -0.1391577              -3.7867
        56                         -0.0853348              -2.3221
        57                         -0.0773916              -2.1059
       ...                                ...                  ...
        89                          0.6022258              16.3874
      -------------------------------------------------------------
                  HL-Gap            0.0942776 Eh            2.5654 eV

     #   Z          covCN         q      C6AA      α(0)
     1   7 N        3.482    -0.145    24.124     7.295
     2   6 C        3.734    -0.029    21.173     6.567
     3   6 C        3.809    -0.090    22.217     6.710
     4   6 C        2.972    -0.013    28.334     8.731
     5   6 C        2.919    -0.039    28.972     8.827
     6   6 C        2.922    -0.030    28.740     8.791
     7   6 C        2.969     0.025    27.449     8.594
     8   6 C        2.902    -0.047    29.159     8.854
     9   6 C        2.902    -0.023    28.589     8.767
    10   6 C        2.974     0.016    27.651     8.625
    11   6 C        2.921    -0.052    29.281     8.874
    12   6 C        2.784     0.175    24.235     8.064
    13   9 F        0.787    -0.218    11.419     3.992
    14   6 C        2.917    -0.042    29.040     8.837
    15   6 C        2.921    -0.024    28.615     8.772
    16   6 C        2.927    -0.036    28.892     8.815
    17   6 C        2.925    -0.037    28.927     8.820
    18   6 C        2.918    -0.068    29.684     8.934
    19   1 H        0.859     0.258     0.852     1.446
    20   1 H        0.859     0.261     0.842     1.438
    21   1 H        0.856     0.279     0.779     1.383
    22   1 H        0.925     0.101     1.779     2.086
    23   1 H        0.924     0.102     1.767     2.079
    24   1 H        0.924     0.069     2.101     2.267
    25   1 H        0.925     0.091     1.866     2.136
    26   1 H        0.926     0.046     2.369     2.407
    27   1 H        0.926     0.056     2.250     2.346
    28   1 H        0.926     0.049     2.334     2.389
    29   1 H        0.925     0.050     2.321     2.382
    30   1 H        0.926     0.059     2.208     2.324
    31   1 H        0.926     0.071     2.074     2.252
    32   1 H        0.926     0.058     2.227     2.334
    33   1 H        0.926     0.049     2.335     2.390
    34   1 H        0.926     0.049     2.338     2.391
    35   1 H        0.925     0.030     2.586     2.515

Wiberg/Mayer (AO) data.
largest (>0.10) Wiberg bond orders for each atom

     #   Z sym  total        # sym  WBO       # sym  WBO       # sym  WBO
 ---------------------------------------------------------------------------
     1   7 N    3.663 --     2 C    0.935    19 H    0.919    20 H    0.917
                            21 H    0.827
     2   6 C    3.898 --     3 C    0.993    23 H    0.969    22 H    0.969
                             1 N    0.935
     3   6 C    3.979 --     4 C    1.006     2 C    0.993    24 H    0.969
                            25 H    0.961
     4   6 C    3.972 --     5 C    1.392    18 C    1.369     3 C    1.006
     5   6 C    3.990 --     6 C    1.476     4 C    1.392    26 H    0.967
     6   6 C    3.981 --     5 C    1.476     7 C    1.349    27 H    0.964
     7   6 C    3.986 --    17 C    1.365     6 C    1.349     8 C    1.120
     8   6 C    3.989 --     9 C    1.748     7 C    1.120    28 H    0.958
     9   6 C    3.986 --     8 C    1.748    10 C    1.118    29 H    0.958
    10   6 C    3.989 --    16 C    1.362    11 C    1.361     9 C    1.118
    11   6 C    3.980 --    12 C    1.419    10 C    1.361    30 H    0.962
                            15 C    0.103
    12   6 C    3.890 --    11 C    1.419    14 C    1.381    13 F    0.966
    13   9 F    1.100 --    12 C    0.966
    14   6 C    3.975 --    15 C    1.432    12 C    1.381    31 H    0.966
    15   6 C    3.990 --    16 C    1.457    14 C    1.432    32 H    0.969
                            11 C    0.103
    16   6 C    3.980 --    15 C    1.457    10 C    1.362    33 H    0.968
    17   6 C    3.980 --    18 C    1.444     7 C    1.365    34 H    0.967
    18   6 C    3.989 --    17 C    1.444     4 C    1.369    35 H    0.959
    19   1 H    0.933 --     1 N    0.919
    20   1 H    0.932 --     1 N    0.917
    21   1 H    0.922 --     1 N    0.827
    22   1 H    0.989 --     2 C    0.969
    23   1 H    0.990 --     2 C    0.969
    24   1 H    0.995 --     3 C    0.969
    25   1 H    0.991 --     3 C    0.961
    26   1 H    0.997 --     5 C    0.967
    27   1 H    0.997 --     6 C    0.964
    28   1 H    0.997 --     8 C    0.958
    29   1 H    0.997 --     9 C    0.958
    30   1 H    0.996 --    11 C    0.962
    31   1 H    0.995 --    14 C    0.966
    32   1 H    0.996 --    15 C    0.969
    33   1 H    0.998 --    16 C    0.968
    34   1 H    0.997 --    17 C    0.967
    35   1 H    0.999 --    18 C    0.959
 ---------------------------------------------------------------------------

molecular dipole:
                 x           y           z       tot (Debye)
 q only:        7.257      -4.200       1.721
   full:        7.239      -4.151       1.880      21.741

           -------------------------------------------------
          | TOTAL ENERGY              -50.124915818492 Eh   |
          | GRADIENT NORM               0.000500939911 Eh/α |
          | HOMO-LUMO GAP               2.565424868915 eV   |
           -------------------------------------------------

 * finished run on 2023/01/23 at 13:53:09.704
