   * xtb version 6.5.1 (fef0646) compiled by 'conda@b96dff2e9fd6' on 2023-01-04
          program call               : xtb init.xyz --opt -c 0 -u 0 -P 16 --alpb water

   ID    Z sym.   atoms
    1    7 N      1
    2    6 C      2, 3, 5
    3   16 S      4
    4   17 Cl     6
    5    1 H      7-16

      * Solvation model:               ALPB
        Solvent                        water
        Solvent mass                       1.8000E+01 g/mol
          :  Hamiltonian                  GFN2-xTB          :
 * total energy  :   -22.2578019 Eh     change       -0.9620749E-11 Eh
 * total energy  :   -22.2612465 Eh     change       -0.3444589E-02 Eh
 * total energy  :   -22.2621309 Eh     change       -0.8843364E-03 Eh
 * total energy  :   -22.2624093 Eh     change       -0.2784217E-03 Eh
 * total energy  :   -22.2625462 Eh     change       -0.1368951E-03 Eh
 * total energy  :   -22.2626696 Eh     change       -0.1234663E-03 Eh
 * total energy  :   -22.2627872 Eh     change       -0.1175750E-03 Eh
 * total energy  :   -22.2629071 Eh     change       -0.1198394E-03 Eh
 * total energy  :   -22.2629948 Eh     change       -0.8776191E-04 Eh
 * total energy  :   -22.2630301 Eh     change       -0.3528992E-04 Eh
 * total energy  :   -22.2630675 Eh     change       -0.3740691E-04 Eh
 * total energy  :   -22.2631390 Eh     change       -0.7147807E-04 Eh
 * total energy  :   -22.2631807 Eh     change       -0.4171957E-04 Eh
 * total energy  :   -22.2632093 Eh     change       -0.2856339E-04 Eh
 * total energy  :   -22.2632245 Eh     change       -0.1527300E-04 Eh
 * total energy  :   -22.2632306 Eh     change       -0.6076283E-05 Eh
 * total energy  :   -22.2632377 Eh     change       -0.7098246E-05 Eh
 * total energy  :   -22.2632416 Eh     change       -0.3909978E-05 Eh
   *** GEOMETRY OPTIMIZATION CONVERGED AFTER 18 ITERATIONS ***

 final structure:
================
16
 xtb: 6.5.1 (fef0646)
N            1.01013584403668        0.29409243845963       -0.08903440276473
C            2.47582914601173        0.17486966307175       -0.17444914130619
C            3.06267091637239        1.28254244437622       -1.02984694766263
S            2.71420136335798        2.92533362864585       -0.26561852482411
C            3.42306569385538        3.98156973639703       -1.55276353004814
Cl          -0.06062430471497       -2.05100719409994        1.52582174149920
H            0.61460118410745       -0.48376441223015        0.50046766694205
H            0.57911117449193        0.23024438008858       -1.01438117246555
H            0.75808911752343        1.18925077573483        0.34022078094305
H            2.72758479926378       -0.79676069777306       -0.59968950916117
H            2.88504095641364        0.22319824993692        0.83448157788731
H            2.62912621151106        1.29079479927709       -2.02902669289753
H            4.14344634300972        1.17463330079845       -1.09991992050481
H            3.30448050033159        5.00580246069642       -1.21498135378917
H            2.88503906328633        3.83073711928129       -2.48343868057944
H            4.47679199114147        3.74716330733914       -1.66954189126842

          :  Hamiltonian                  GFN2-xTB          :
         :: total energy             -22.263241633352 Eh    ::
         :: gradient norm              0.000629756629 Eh/a0 ::
         :: HOMO-LUMO gap              4.204090830777 eV    ::
         :: SCC energy               -22.468469215185 Eh    ::
         :: -> dispersion             -0.008970077838 Eh    ::
         :: -> Gsolv                  -0.070440361746 Eh    ::
         :: repulsion energy           0.205248029792 Eh    ::

    * Orbital Energies and Occupations

         #    Occupation            Energy/Eh            Energy/eV
      -------------------------------------------------------------
         1        2.0000           -1.0049903             -27.3472
       ...           ...                  ...                  ...
         8        2.0000           -0.5617089             -15.2849
         9        2.0000           -0.5407730             -14.7152
        10        2.0000           -0.5062412             -13.7755
        11        2.0000           -0.4984253             -13.5628
        12        2.0000           -0.4922973             -13.3961
        13        2.0000           -0.4844781             -13.1833
        14        2.0000           -0.4651959             -12.6586
        15        2.0000           -0.4592599             -12.4971
        16        2.0000           -0.4366643             -11.8822
        17        2.0000           -0.4026845             -10.9576
        18        2.0000           -0.3989224             -10.8552
        19        2.0000           -0.3988297             -10.8527
        20        2.0000           -0.3569754              -9.7138 (HOMO)
        21                         -0.2024779              -5.5097 (LUMO)
        22                         -0.1390903              -3.7848
        23                         -0.0285154              -0.7759
        24                         -0.0042132              -0.1146
        25                          0.0062723               0.1707
        26                          0.0227748               0.6197
        27                          0.0847842               2.3071
        28                          0.0990581               2.6955
        29                          0.1075994               2.9279
        30                          0.1182191               3.2169
        31                          0.1183017               3.2192
       ...                                ...                  ...
        44                          0.4159051              11.3174
      -------------------------------------------------------------
                  HL-Gap            0.1544975 Eh            4.2041 eV

     #   Z          covCN         q      C6AA      α(0)
     1   7 N        3.484    -0.166    24.572     7.362
     2   6 C        3.765    -0.024    21.049     6.539
     3   6 C        3.794    -0.028    21.079     6.538
     4  16 S        1.972    -0.248   151.711    20.731
     5   6 C        3.745    -0.061    21.738     6.651
     6  17 Cl       0.059    -0.945   124.806    17.002
     7   1 H        0.915     0.300     0.708     1.316
     8   1 H        0.859     0.303     0.706     1.316
     9   1 H        0.859     0.299     0.718     1.327
    10   1 H        0.925     0.113     1.675     2.024
    11   1 H        0.925     0.109     1.704     2.041
    12   1 H        0.925     0.085     1.925     2.170
    13   1 H        0.925     0.079     1.993     2.208
    14   1 H        0.925     0.062     2.179     2.309
    15   1 H        0.925     0.066     2.134     2.284
    16   1 H        0.925     0.058     2.228     2.334

Wiberg/Mayer (AO) data.
largest (>0.10) Wiberg bond orders for each atom

     #   Z sym  total        # sym  WBO       # sym  WBO       # sym  WBO
 ---------------------------------------------------------------------------
     1   7 N    3.646 --     2 C    0.976     8 H    0.893     9 H    0.893
                             7 H    0.826
     2   6 C    3.935 --     3 C    1.020     1 N    0.976    11 H    0.964
                            10 H    0.959
     3   6 C    3.973 --     2 C    1.020     4 S    0.983    13 H    0.969
                            12 H    0.968
     4  16 S    2.076 --     5 C    1.012     3 C    0.983
     5   6 C    3.974 --     4 S    1.012    16 H    0.983    15 H    0.982
                            14 H    0.980
     6  17 Cl   0.106
     7   1 H    0.910 --     1 N    0.826
     8   1 H    0.908 --     1 N    0.893
     9   1 H    0.911 --     1 N    0.893
    10   1 H    0.987 --     2 C    0.959
    11   1 H    0.988 --     2 C    0.964
    12   1 H    0.993 --     3 C    0.968
    13   1 H    0.994 --     3 C    0.969
    14   1 H    0.996 --     5 C    0.980
    15   1 H    0.996 --     5 C    0.982
    16   1 H    0.997 --     5 C    0.983
 ---------------------------------------------------------------------------

molecular dipole:
                 x           y           z       tot (Debye)
 q only:        2.403       3.920      -3.514
   full:        2.327       3.572      -3.429      13.906

           -------------------------------------------------
          | TOTAL ENERGY              -22.263241633352 Eh   |
          | GRADIENT NORM               0.000629756629 Eh/α |
          | HOMO-LUMO GAP               4.204090830777 eV   |
           -------------------------------------------------

 * finished run on 2023/01/24 at 16:51:37.472
