   * xtb version 6.5.1 (fef0646) compiled by 'conda@b96dff2e9fd6' on 2023-01-04
          program call               : xtb init.xyz --opt -c 0 -u 0 -P 16 --input xtb.inp

   ID    Z sym.   atoms
    1    7 N      1
    2    6 C      2, 3, 5
    3   16 S      4
    4   17 Cl     6
    5    1 H      7-16

          :  Hamiltonian                  GFN2-xTB          :
 * total energy  :   -22.1919129 Eh     change       -0.4296403E-09 Eh
 * total energy  :   -22.1923683 Eh     change       -0.4553254E-03 Eh
 * total energy  :   -22.1978234 Eh     change       -0.5455158E-02 Eh
 * total energy  :   -22.2021375 Eh     change       -0.4314065E-02 Eh
 * total energy  :   -22.2069873 Eh     change       -0.4849811E-02 Eh
 * total energy  :   -22.2143182 Eh     change       -0.7330944E-02 Eh
 * total energy  :   -22.2168997 Eh     change       -0.2581460E-02 Eh
 * total energy  :   -22.2182705 Eh     change       -0.1370757E-02 Eh
 * total energy  :   -22.2195552 Eh     change       -0.1284778E-02 Eh
 * total energy  :   -22.2202713 Eh     change       -0.7160510E-03 Eh
 * total energy  :   -22.2216530 Eh     change       -0.3007409E-04 Eh
 * total energy  :   -22.2216850 Eh     change       -0.3200773E-04 Eh
 * total energy  :   -22.2216963 Eh     change       -0.1124626E-04 Eh
 * total energy  :   -22.2217078 Eh     change       -0.1154957E-04 Eh
 * total energy  :   -22.2217139 Eh     change       -0.6032942E-05 Eh
 * total energy  :   -22.2217207 Eh     change       -0.6839300E-05 Eh
 * total energy  :   -22.2217274 Eh     change       -0.6663160E-05 Eh
 * total energy  :   -22.2217330 Eh     change       -0.5609956E-05 Eh
 * total energy  :   -22.2217361 Eh     change       -0.3149492E-05 Eh
   *** GEOMETRY OPTIMIZATION CONVERGED AFTER 30 ITERATIONS ***

 final structure:
================
16
 xtb: 6.5.1 (fef0646)
N            1.19797130472531       -0.30681260078133        0.08881310264865
C            2.64084274820786       -0.10500747301503        0.21306353373809
C            3.20104176146133        0.40042106536409       -1.10708930136931
S            4.99447782708810        0.70866572589722       -0.93597880727548
C            5.22389579653436        1.74897109348939       -2.40405406653549
Cl          -0.04530786757946        2.16552813571119       -0.91047549404244
H            0.79049005063352       -0.56899843001126        0.97943895992152
H            0.99336877100838       -1.03423313227506       -0.58897255298275
H            0.52494723402627        1.02156408725617       -0.42579195465445
H            3.17126919823597       -1.02084578867786        0.50818470370331
H            2.81035218907905        0.64830151615996        0.98540270501493
H            2.72092037312792        1.33819281742531       -1.38296491528354
H            3.05441247277822       -0.33441409343220       -1.90112689631814
H            6.27858361339107        1.99830828790120       -2.45068972420494
H            4.63008919007385        2.65313020697924       -2.30179314296046
H            4.93187533720823        1.19487858200935       -3.29183614939918

          :  Hamiltonian                  GFN2-xTB          :
         :: total energy             -22.221736127937 Eh    ::
         :: gradient norm              0.000331370019 Eh/a0 ::
         :: HOMO-LUMO gap              4.189156313504 eV    ::
         :: SCC energy               -22.418583902343 Eh    ::
         :: -> dispersion             -0.009874033864 Eh    ::
         :: repulsion energy           0.196814783556 Eh    ::

    * Orbital Energies and Occupations

         #    Occupation            Energy/Eh            Energy/eV
      -------------------------------------------------------------
         1        2.0000           -1.0249543             -27.8904
       ...           ...                  ...                  ...
         8        2.0000           -0.5566015             -15.1459
         9        2.0000           -0.5351418             -14.5619
        10        2.0000           -0.5118697             -13.9287
        11        2.0000           -0.5059267             -13.7670
        12        2.0000           -0.4982601             -13.5583
        13        2.0000           -0.4940250             -13.4431
        14        2.0000           -0.4707422             -12.8095
        15        2.0000           -0.4679469             -12.7335
        16        2.0000           -0.4521513             -12.3037
        17        2.0000           -0.4079754             -11.1016
        18        2.0000           -0.4018139             -10.9339
        19        2.0000           -0.4017206             -10.9314
        20        2.0000           -0.3614109              -9.8345 (HOMO)
        21                         -0.2074622              -5.6453 (LUMO)
        22                         -0.1441980              -3.9238
        23                         -0.0619017              -1.6844
        24                         -0.0156367              -0.4255
        25                         -0.0014764              -0.0402
        26                          0.0158286               0.4307
        27                          0.0282265               0.7681
        28                          0.0586384               1.5956
        29                          0.0591448               1.6094
        30                          0.0646025               1.7579
        31                          0.0648889               1.7657
       ...                                ...                  ...
        44                          0.4108140              11.1788
      -------------------------------------------------------------
                  HL-Gap            0.1539487 Eh            4.1892 eV

     #   Z          covCN         q      C6AA      α(0)
     1   7 N        2.682    -0.309    27.946     7.851
     2   6 C        3.772     0.009    20.456     6.445
     3   6 C        3.796    -0.019    20.919     6.513
     4  16 S        1.980    -0.209   149.969    20.611
     5   6 C        3.745    -0.051    21.554     6.623
     6  17 Cl       0.838    -0.477   114.839    16.394
     7   1 H        0.860     0.171     1.265     1.762
     8   1 H        0.860     0.168     1.285     1.775
     9   1 H        0.888     0.332     0.624     1.236
    10   1 H        0.923     0.037     2.491     2.468
    11   1 H        0.924     0.063     2.161     2.299
    12   1 H        0.925     0.070     2.083     2.257
    13   1 H        0.924     0.044     2.391     2.418
    14   1 H        0.925     0.063     2.160     2.298
    15   1 H        0.925     0.055     2.258     2.350
    16   1 H        0.925     0.051     2.303     2.373

Wiberg/Mayer (AO) data.
largest (>0.10) Wiberg bond orders for each atom

     #   Z sym  total        # sym  WBO       # sym  WBO       # sym  WBO
 ---------------------------------------------------------------------------
     1   7 N    3.228 --     2 C    1.005     8 H    0.958     7 H    0.957
                             9 H    0.196
     2   6 C    3.975 --     3 C    1.012     1 N    1.005    11 H    0.974
                            10 H    0.972
     3   6 C    3.981 --     2 C    1.012     4 S    0.989    13 H    0.977
                            12 H    0.970
     4  16 S    2.072 --     5 C    1.013     3 C    0.989
     5   6 C    3.978 --     4 S    1.013    16 H    0.985    15 H    0.984
                            14 H    0.980
     6  17 Cl   0.776 --     9 H    0.690
     7   1 H    0.970 --     1 N    0.957
     8   1 H    0.972 --     1 N    0.958
     9   1 H    0.890 --     6 Cl   0.690     1 N    0.196
    10   1 H    0.999 --     2 C    0.972
    11   1 H    0.996 --     2 C    0.974
    12   1 H    0.995 --     3 C    0.970
    13   1 H    0.998 --     3 C    0.977
    14   1 H    0.996 --     5 C    0.980
    15   1 H    0.997 --     5 C    0.984
    16   1 H    0.997 --     5 C    0.985
 ---------------------------------------------------------------------------

molecular dipole:
                 x           y           z       tot (Debye)
 q only:        0.584      -1.321       0.233
   full:        0.145      -1.183      -0.054       3.033

           -------------------------------------------------
          | TOTAL ENERGY              -22.221736127937 Eh   |
          | GRADIENT NORM               0.000331370019 Eh/α |
          | HOMO-LUMO GAP               4.189156313504 eV   |
           -------------------------------------------------

 * finished run on 2023/01/23 at 21:04:56.197
