   * xtb version 6.5.1 (fef0646) compiled by 'conda@b96dff2e9fd6' on 2023-01-04
          program call               : xtb init.xyz --opt -c 1 -u 0 -P 16

   ID    Z sym.   atoms
    1    7 N      1
    2    6 C      2-9
    3    1 H      10-21

          :  Hamiltonian                  GFN2-xTB          :
 * total energy  :   -25.7249181 Eh     change       -0.2806004E-09 Eh
 * total energy  :   -25.7271339 Eh     change       -0.2215831E-02 Eh
 * total energy  :   -25.7274694 Eh     change       -0.3355121E-03 Eh
 * total energy  :   -25.7275348 Eh     change       -0.6535386E-04 Eh
 * total energy  :   -25.7275703 Eh     change       -0.3552698E-04 Eh
 * total energy  :   -25.7275937 Eh     change       -0.2339149E-04 Eh
 * total energy  :   -25.7276159 Eh     change       -0.2222683E-04 Eh
 * total energy  :   -25.7276465 Eh     change       -0.3062209E-04 Eh
 * total energy  :   -25.7276588 Eh     change       -0.1223707E-04 Eh
 * total energy  :   -25.7276667 Eh     change       -0.7961690E-05 Eh
 * total energy  :   -25.7276682 Eh     change       -0.1460233E-05 Eh
   *** GEOMETRY OPTIMIZATION CONVERGED AFTER 11 ITERATIONS ***

 final structure:
================
21
 xtb: 6.5.1 (fef0646)
N            1.15729178464513       -0.28586101602307       -0.35730607278891
C            2.57207735712783        0.07836921060201        0.05641156486226
C            3.50796203800333       -0.25810470872554       -1.09185362653551
C            2.89929562245464       -0.66308965707760        1.32848809728186
C            3.25983388045909        0.03956276392225        2.47085658572942
C            3.57266824373769       -0.63845097693791        3.63666539025913
C            3.51877211263840       -2.02149105883349        3.67088306943001
C            3.15635772320392       -2.72816488133187        2.53546255080168
C            2.84899676204827       -2.05364500876844        1.36782696717551
H            0.48148243779419        0.01384429044154        0.35519587199608
H            1.10362334808436       -1.31021321201302       -0.44435289100286
H            0.91594271953805        0.14109991552014       -1.26005833683381
H            2.58504397986461        1.15570749386179        0.24245749589493
H            3.49078238822521       -1.32000354903281       -1.32178761011154
H            4.52463307736846       -0.00078113651646       -0.80869269901718
H            3.25802562797139        0.30803320902780       -1.98603071450420
H            3.30758552729245        1.11795862583422        2.44638914248809
H            3.85751103967256       -0.08435284506525        4.51663817217018
H            3.76205983301288       -2.54973150550622        4.57872035288825
H            3.11769437561349       -3.80573375593155        2.55665959115700
H            2.58873012124399       -2.62600219744642        0.48683709865961

          :  Hamiltonian                  GFN2-xTB          :
         :: total energy             -25.727668203704 Eh    ::
         :: gradient norm              0.000489449002 Eh/a0 ::
         :: HOMO-LUMO gap              4.659576175779 eV    ::
         :: SCC energy               -26.179423576134 Eh    ::
         :: -> dispersion             -0.015101812148 Eh    ::
         :: repulsion energy           0.451667365341 Eh    ::

    * Orbital Energies and Occupations

         #    Occupation            Energy/Eh            Energy/eV
      -------------------------------------------------------------
         1        2.0000           -0.8828356             -24.0232
       ...           ...                  ...                  ...
        12        2.0000           -0.6721569             -18.2903
        13        2.0000           -0.6590912             -17.9348
        14        2.0000           -0.6383337             -17.3699
        15        2.0000           -0.6273212             -17.0703
        16        2.0000           -0.6245508             -16.9949
        17        2.0000           -0.6190101             -16.8441
        18        2.0000           -0.6100808             -16.6011
        19        2.0000           -0.6094277             -16.5834
        20        2.0000           -0.6044738             -16.4486
        21        2.0000           -0.5568749             -15.1533
        22        2.0000           -0.5527165             -15.0402
        23        2.0000           -0.5391966             -14.6723
        24        2.0000           -0.5386450             -14.6573 (HOMO)
        25                         -0.3674087              -9.9977 (LUMO)
        26                         -0.3564731              -9.7001
        27                         -0.2567726              -6.9871
        28                         -0.2230119              -6.0685
        29                         -0.1558708              -4.2415
        30                         -0.0973622              -2.6494
        31                         -0.0869799              -2.3668
        32                         -0.0657926              -1.7903
        33                         -0.0251608              -0.6847
        34                         -0.0083740              -0.2279
        35                          0.0124919               0.3399
       ...                                ...                  ...
        48                          0.5304448              14.4341
      -------------------------------------------------------------
                  HL-Gap            0.1712363 Eh            4.6596 eV

     #   Z          covCN         q      C6AA      α(0)
     1   7 N        3.484    -0.142    24.073     7.287
     2   6 C        3.784     0.023    20.199     6.402
     3   6 C        3.755    -0.138    23.218     6.871
     4   6 C        2.973    -0.016    28.407     8.743
     5   6 C        2.923    -0.034    28.850     8.808
     6   6 C        2.919    -0.018    28.451     8.747
     7   6 C        2.920    -0.016    28.409     8.741
     8   6 C        2.919    -0.020    28.519     8.757
     9   6 C        2.922    -0.042    29.037     8.837
    10   1 H        0.859     0.263     0.833     1.430
    11   1 H        0.859     0.270     0.808     1.409
    12   1 H        0.859     0.266     0.825     1.423
    13   1 H        0.924     0.092     1.861     2.134
    14   1 H        0.925     0.073     2.052     2.240
    15   1 H        0.925     0.097     1.809     2.103
    16   1 H        0.925     0.068     2.107     2.270
    17   1 H        0.926     0.049     2.336     2.390
    18   1 H        0.926     0.066     2.132     2.284
    19   1 H        0.926     0.067     2.118     2.276
    20   1 H        0.926     0.061     2.184     2.311
    21   1 H        0.925     0.031     2.576     2.510

Wiberg/Mayer (AO) data.
largest (>0.10) Wiberg bond orders for each atom

     #   Z sym  total        # sym  WBO       # sym  WBO       # sym  WBO
 ---------------------------------------------------------------------------
     1   7 N    3.666 --    10 H    0.916    12 H    0.912    11 H    0.902
                             2 C    0.882
     2   6 C    3.890 --     3 C    1.010     4 C    0.992    13 H    0.959
                             1 N    0.882
     3   6 C    3.979 --     2 C    1.010    16 H    0.979    14 H    0.978
                            15 H    0.970
     4   6 C    3.975 --     5 C    1.414     9 C    1.403     2 C    0.992
                             7 C    0.108
     5   6 C    3.991 --     6 C    1.440     4 C    1.414    17 H    0.967
                             8 C    0.108
     6   6 C    3.989 --     7 C    1.442     5 C    1.440    18 H    0.968
                             9 C    0.111
     7   6 C    3.987 --     6 C    1.442     8 C    1.433    19 H    0.968
                             4 C    0.108
     8   6 C    3.990 --     9 C    1.449     7 C    1.433    20 H    0.968
                             5 C    0.108
     9   6 C    3.992 --     8 C    1.449     4 C    1.403    21 H    0.962
                             6 C    0.111
    10   1 H    0.931 --     1 N    0.916
    11   1 H    0.927 --     1 N    0.902
    12   1 H    0.929 --     1 N    0.912
    13   1 H    0.991 --     2 C    0.959
    14   1 H    0.995 --     3 C    0.978
    15   1 H    0.991 --     3 C    0.970
    16   1 H    0.994 --     3 C    0.979
    17   1 H    0.998 --     5 C    0.967
    18   1 H    0.995 --     6 C    0.968
    19   1 H    0.995 --     7 C    0.968
    20   1 H    0.996 --     8 C    0.968
    21   1 H    0.999 --     9 C    0.962
 ---------------------------------------------------------------------------

molecular dipole:
                 x           y           z       tot (Debye)
 q only:        3.233      -0.842       0.209
   full:        3.000      -0.839       0.095       7.921

           -------------------------------------------------
          | TOTAL ENERGY              -25.727668203704 Eh   |
          | GRADIENT NORM               0.000489449002 Eh/α |
          | HOMO-LUMO GAP               4.659576175779 eV   |
           -------------------------------------------------

 * finished run on 2023/01/23 at 14:31:04.412
