   * xtb version 6.5.1 (fef0646) compiled by 'conda@b96dff2e9fd6' on 2023-01-04
          program call               : xtb init.xyz --opt -c 0 -u 0 -P 16 --alpb water

   ID    Z sym.   atoms
    1    7 N      1
    2    6 C      2-8
    3   17 Cl     9
    4    1 H      10-25

      * Solvation model:               ALPB
        Solvent                        water
        Solvent mass                       1.8000E+01 g/mol
          :  Hamiltonian                  GFN2-xTB          :
 * total energy  :   -30.6712992 Eh     change       -0.2287699E-09 Eh
 * total energy  :   -30.6757290 Eh     change       -0.4429784E-02 Eh
 * total energy  :   -30.6773948 Eh     change       -0.1665889E-02 Eh
 * total energy  :   -30.6780451 Eh     change       -0.6502098E-03 Eh
 * total energy  :   -30.6785348 Eh     change       -0.4897446E-03 Eh
 * total energy  :   -30.6790221 Eh     change       -0.4873229E-03 Eh
 * total energy  :   -30.6796517 Eh     change       -0.6296012E-03 Eh
 * total energy  :   -30.6799967 Eh     change       -0.3449851E-03 Eh
 * total energy  :   -30.6803877 Eh     change       -0.3909443E-03 Eh
 * total energy  :   -30.6810086 Eh     change       -0.6209596E-03 Eh
 * total energy  :   -30.6813584 Eh     change       -0.3497562E-03 Eh
 * total energy  :   -30.6815071 Eh     change       -0.1487166E-03 Eh
 * total energy  :   -30.6815595 Eh     change       -0.5242909E-04 Eh
 * total energy  :   -30.6816091 Eh     change       -0.4961052E-04 Eh
 * total energy  :   -30.6816192 Eh     change       -0.1006173E-04 Eh
 * total energy  :   -30.6816273 Eh     change       -0.8106387E-05 Eh
 * total energy  :   -30.6816303 Eh     change       -0.2968473E-05 Eh
   *** GEOMETRY OPTIMIZATION CONVERGED AFTER 17 ITERATIONS ***

 final structure:
================
25
 xtb: 6.5.1 (fef0646)
N            1.31551464424457       -0.07080873481621       -0.58941407313313
C            2.59459682817338        0.11443803563275        0.12838138037107
C            2.86112989469243       -0.97872131356490        1.16488086296016
C            2.67402572262580       -2.38346113044475        0.58800190591805
C            3.05281020808110       -3.43176720786874        1.63144007086651
C            2.18249149249465       -3.26876607491119        2.87404498232399
C            2.34035148080833       -1.86556371316624        3.45173017609434
C            1.98050408513585       -0.81399399696330        2.40511303447940
Cl          -1.35605543753995       -0.79010749775751        0.73219539729360
H            1.08075598188260        0.75896984508739       -1.13797386664944
H            0.50241836538209       -0.25212304925368        0.04624283653565
H            1.36548372555174       -0.87900492805963       -1.21361095321114
H            2.57270761021883        1.07798698963239        0.63681156736530
H            3.39991789301282        0.12008157006433       -0.60738492954831
H            3.90454356600769       -0.87307546687277        1.48056616221127
H            3.29270321645720       -2.51625950353460       -0.30109235652725
H            1.62552553749509       -2.53720345198833        0.32671307045840
H            4.10300212917345       -3.31756270029281        1.90957867380016
H            2.92191075096473       -4.43410238828631        1.21873028652734
H            2.45147435076605       -4.01557478377503        3.62447517917462
H            1.13439369397550       -3.42764959227189        2.60643848690396
H            3.37447671680560       -1.72265147400392        3.77575401083035
H            1.69724041011811       -1.75158471813691        4.32734121239863
H            2.11545594952896        0.18158105484757        2.83221877616599
H            0.92803118394339       -0.92427576929565        2.13798810639029

          :  Hamiltonian                  GFN2-xTB          :
         :: total energy             -30.681630263441 Eh    ::
         :: gradient norm              0.000486097188 Eh/a0 ::
         :: HOMO-LUMO gap             10.059557049846 eV    ::
         :: SCC energy               -31.050007503702 Eh    ::
         :: -> dispersion             -0.018703549949 Eh    ::
         :: -> Gsolv                  -0.071919864728 Eh    ::
         :: repulsion energy           0.368166524330 Eh    ::

    * Orbital Energies and Occupations

         #    Occupation            Energy/Eh            Energy/eV
      -------------------------------------------------------------
         1        2.0000           -1.0059057             -27.3721
       ...           ...                  ...                  ...
        16        2.0000           -0.4856562             -13.2154
        17        2.0000           -0.4786789             -13.0255
        18        2.0000           -0.4580576             -12.4644
        19        2.0000           -0.4566499             -12.4261
        20        2.0000           -0.4484583             -12.2032
        21        2.0000           -0.4305047             -11.7146
        22        2.0000           -0.4268549             -11.6153
        23        2.0000           -0.4157357             -11.3127
        24        2.0000           -0.4093676             -11.1395
        25        2.0000           -0.4047132             -11.0128
        26        2.0000           -0.4021747             -10.9437
        27        2.0000           -0.4003676             -10.8946
        28        2.0000           -0.3976057             -10.8194 (HOMO)
        29                         -0.0279238              -0.7598 (LUMO)
        30                          0.0626363               1.7044
        31                          0.0763378               2.0773
        32                          0.0867971               2.3619
        33                          0.1016506               2.7661
        34                          0.1053884               2.8678
        35                          0.1148619               3.1256
        36                          0.1171059               3.1866
        37                          0.1183483               3.2204
        38                          0.1192927               3.2461
        39                          0.1198331               3.2608
       ...                                ...                  ...
        57                          0.3241707               8.8211
      -------------------------------------------------------------
                  HL-Gap            0.3696819 Eh           10.0596 eV

     #   Z          covCN         q      C6AA      α(0)
     1   7 N        3.483    -0.161    24.462     7.346
     2   6 C        3.734    -0.035    21.294     6.586
     3   6 C        3.856    -0.028    21.036     6.523
     4   6 C        3.808    -0.076    21.944     6.668
     5   6 C        3.806    -0.060    21.645     6.623
     6   6 C        3.806    -0.057    21.586     6.614
     7   6 C        3.805    -0.056    21.583     6.614
     8   6 C        3.808    -0.071    21.861     6.656
     9  17 Cl       0.027    -0.953   125.083    17.021
    10   1 H        0.859     0.304     0.702     1.313
    11   1 H        0.884     0.291     0.737     1.344
    12   1 H        0.859     0.290     0.743     1.350
    13   1 H        0.925     0.101     1.772     2.082
    14   1 H        0.924     0.107     1.721     2.052
    15   1 H        0.924     0.063     2.165     2.301
    16   1 H        0.924     0.049     2.332     2.388
    17   1 H        0.924     0.049     2.331     2.388
    18   1 H        0.924     0.037     2.489     2.467
    19   1 H        0.924     0.028     2.619     2.531
    20   1 H        0.924     0.020     2.740     2.589
    21   1 H        0.924     0.024     2.678     2.559
    22   1 H        0.924     0.033     2.540     2.492
    23   1 H        0.924     0.017     2.783     2.609
    24   1 H        0.924     0.034     2.530     2.488
    25   1 H        0.924     0.049     2.330     2.387

Wiberg/Mayer (AO) data.
largest (>0.10) Wiberg bond orders for each atom

     #   Z sym  total        # sym  WBO       # sym  WBO       # sym  WBO
 ---------------------------------------------------------------------------
     1   7 N    3.650 --     2 C    0.966    12 H    0.898    10 H    0.894
                            11 H    0.841
     2   6 C    3.928 --     3 C    0.997    13 H    0.967    14 H    0.967
                             1 N    0.966
     3   6 C    3.993 --     8 C    0.998     2 C    0.997     4 C    0.997
                            15 H    0.960
     4   6 C    3.996 --     5 C    1.008     3 C    0.997    16 H    0.975
                            17 H    0.973
     5   6 C    3.998 --     6 C    1.009     4 C    1.008    19 H    0.978
                            18 H    0.977
     6   6 C    3.998 --     5 C    1.009     7 C    1.009    20 H    0.978
                            21 H    0.978
     7   6 C    3.998 --     6 C    1.009     8 C    1.008    23 H    0.978
                            22 H    0.977
     8   6 C    3.996 --     7 C    1.008     3 C    0.998    24 H    0.976
                            25 H    0.970
     9  17 Cl   0.093
    10   1 H    0.908 --     1 N    0.894
    11   1 H    0.915 --     1 N    0.841
    12   1 H    0.916 --     1 N    0.898
    13   1 H    0.989 --     2 C    0.967
    14   1 H    0.988 --     2 C    0.967
    15   1 H    0.996 --     3 C    0.960
    16   1 H    0.998 --     4 C    0.975
    17   1 H    0.998 --     4 C    0.973
    18   1 H    0.999 --     5 C    0.977
    19   1 H    0.999 --     5 C    0.978
    20   1 H    0.999 --     6 C    0.978
    21   1 H    0.999 --     6 C    0.978
    22   1 H    0.999 --     7 C    0.977
    23   1 H    0.999 --     7 C    0.978
    24   1 H    0.999 --     8 C    0.976
    25   1 H    0.998 --     8 C    0.970
 ---------------------------------------------------------------------------

molecular dipole:
                 x           y           z       tot (Debye)
 q only:        5.058       1.343      -2.389
   full:        4.209       1.137      -2.146      12.352

           -------------------------------------------------
          | TOTAL ENERGY              -30.681630263441 Eh   |
          | GRADIENT NORM               0.000486097188 Eh/α |
          | HOMO-LUMO GAP              10.059557049846 eV   |
           -------------------------------------------------

 * finished run on 2023/01/24 at 14:56:00.817
