   * xtb version 6.5.1 (fef0646) compiled by 'conda@b96dff2e9fd6' on 2023-01-04
          program call               : xtb init.xyz --opt -c 0 -u 0 -P 16 --alpb water

   ID    Z sym.   atoms
    1    7 N      1
    2    6 C      2-5
    3   35 Br     6
    4   17 Cl     7
    5    1 H      8-18

      * Solvation model:               ALPB
        Solvent                        water
        Solvent mass                       1.8000E+01 g/mol
          :  Hamiltonian                  GFN2-xTB          :
 * total energy  :   -25.7625343 Eh     change       -0.4309726E-09 Eh
 * total energy  :   -25.7671876 Eh     change       -0.4653219E-02 Eh
 * total energy  :   -25.7685799 Eh     change       -0.1392370E-02 Eh
 * total energy  :   -25.7691049 Eh     change       -0.5249463E-03 Eh
 * total energy  :   -25.7694636 Eh     change       -0.3587356E-03 Eh
 * total energy  :   -25.7699709 Eh     change       -0.5073405E-03 Eh
 * total energy  :   -25.7703994 Eh     change       -0.4284465E-03 Eh
 * total energy  :   -25.7706705 Eh     change       -0.2710667E-03 Eh
 * total energy  :   -25.7708726 Eh     change       -0.2021646E-03 Eh
 * total energy  :   -25.7710329 Eh     change       -0.1602993E-03 Eh
 * total energy  :   -25.7715681 Eh     change       -0.1174943E-03 Eh
 * total energy  :   -25.7716601 Eh     change       -0.9199887E-04 Eh
 * total energy  :   -25.7717015 Eh     change       -0.4142315E-04 Eh
 * total energy  :   -25.7717372 Eh     change       -0.3575018E-04 Eh
 * total energy  :   -25.7718095 Eh     change       -0.7230814E-04 Eh
 * total energy  :   -25.7718344 Eh     change       -0.2488891E-04 Eh
 * total energy  :   -25.7718453 Eh     change       -0.1085174E-04 Eh
 * total energy  :   -25.7718520 Eh     change       -0.6711821E-05 Eh
 * total energy  :   -25.7718568 Eh     change       -0.4848333E-05 Eh
   *** GEOMETRY OPTIMIZATION CONVERGED AFTER 21 ITERATIONS ***

 final structure:
================
18
 xtb: 6.5.1 (fef0646)
N            1.22970511831870        0.32100067758787       -0.19363285693932
C            2.69506192638980        0.27011664888299       -0.36006863998025
C            3.11466404001958       -1.12677179271915       -0.80409712800289
C            4.63613575479864       -1.27726172016760       -0.79101712903865
C            5.02392575745791       -2.68321851248285       -1.20563536383262
Br           6.98595101778443       -2.92220189218091       -1.18113004526157
Cl           0.43120952245017       -1.98200063053517        1.65674314488518
H            0.92577455547219        1.21902507874136        0.18877032359415
H            0.92814391320557       -0.43725158389795        0.47109156782363
H            0.75332815780679        0.14568174754964       -1.08191645281397
H            3.16055528972862        0.49308143236389        0.59931564580994
H            3.00846393852333        1.01508624422699       -1.09205477290730
H            2.74136232904114       -1.33364807371373       -1.80714564519356
H            2.66827464724597       -1.85103468344900       -0.12038356300028
H            5.01687662574458       -1.08030689165151        0.21292638604678
H            5.09176927232724       -0.55715489659470       -1.47348588880533
H            4.71716786045541       -2.91128504344323       -2.22480929859889
H            4.62640027323018       -3.43094610851672       -0.52156028378488

          :  Hamiltonian                  GFN2-xTB          :
         :: total energy             -25.771856847041 Eh    ::
         :: gradient norm              0.000775284754 Eh/a0 ::
         :: HOMO-LUMO gap              4.968627538325 eV    ::
         :: SCC energy               -26.009163932619 Eh    ::
         :: -> dispersion             -0.010835208284 Eh    ::
         :: -> Gsolv                  -0.077778055142 Eh    ::
         :: repulsion energy           0.237293712406 Eh    ::

    * Orbital Energies and Occupations

         #    Occupation            Energy/Eh            Energy/eV
      -------------------------------------------------------------
         1        2.0000           -1.0087874             -27.4505
       ...           ...                  ...                  ...
        11        2.0000           -0.5368970             -14.6097
        12        2.0000           -0.5058521             -13.7649
        13        2.0000           -0.4997502             -13.5989
        14        2.0000           -0.4952178             -13.4756
        15        2.0000           -0.4633601             -12.6087
        16        2.0000           -0.4613950             -12.5552
        17        2.0000           -0.4570606             -12.4373
        18        2.0000           -0.4358299             -11.8595
        19        2.0000           -0.4102209             -11.1627
        20        2.0000           -0.4082712             -11.1096
        21        2.0000           -0.4049958             -11.0205
        22        2.0000           -0.4024642             -10.9516
        23        2.0000           -0.4019995             -10.9390 (HOMO)
        24                         -0.2194058              -5.9703 (LUMO)
        25                         -0.0316591              -0.8615
        26                          0.0248083               0.6751
        27                          0.0377189               1.0264
        28                          0.0440645               1.1991
        29                          0.0539839               1.4690
        30                          0.0762682               2.0754
        31                          0.0852892               2.3208
        32                          0.0969989               2.6395
        33                          0.1028765               2.7994
        34                          0.1130831               3.0771
       ...                                ...                  ...
        49                          0.3552596               9.6671
      -------------------------------------------------------------
                  HL-Gap            0.1825937 Eh            4.9686 eV

     #   Z          covCN         q      C6AA      α(0)
     1   7 N        3.484    -0.171    24.691     7.380
     2   6 C        3.733    -0.027    21.152     6.564
     3   6 C        3.806    -0.081    22.046     6.684
     4   6 C        3.855    -0.066    21.731     6.630
     5   6 C        3.741     0.023    20.261     6.422
     6  35 Br       0.967    -0.250   192.003    22.342
     7  17 Cl       0.047    -0.947   124.864    17.006
     8   1 H        0.859     0.308     0.691     1.302
     9   1 H        0.903     0.296     0.721     1.329
    10   1 H        0.859     0.299     0.715     1.325
    11   1 H        0.925     0.101     1.772     2.081
    12   1 H        0.924     0.111     1.691     2.033
    13   1 H        0.925     0.068     2.111     2.272
    14   1 H        0.924     0.067     2.122     2.278
    15   1 H        0.924     0.059     2.207     2.323
    16   1 H        0.924     0.068     2.110     2.272
    17   1 H        0.926     0.076     2.020     2.223
    18   1 H        0.926     0.067     2.117     2.276

Wiberg/Mayer (AO) data.
largest (>0.10) Wiberg bond orders for each atom

     #   Z sym  total        # sym  WBO       # sym  WBO       # sym  WBO
 ---------------------------------------------------------------------------
     1   7 N    3.642 --     2 C    0.972    10 H    0.896     8 H    0.892
                             9 H    0.831
     2   6 C    3.929 --     3 C    1.008     1 N    0.972    11 H    0.968
                            12 H    0.966
     3   6 C    3.990 --     2 C    1.008     4 C    0.996    13 H    0.973
                            14 H    0.970
     4   6 C    3.989 --     5 C    1.017     3 C    0.996    15 H    0.974
                            16 H    0.974
     5   6 C    3.930 --     4 C    1.017    18 H    0.976    17 H    0.974
                             6 Br   0.945
     6  35 Br   0.995 --     5 C    0.945
     7  17 Cl   0.103
     8   1 H    0.905 --     1 N    0.892
     9   1 H    0.912 --     1 N    0.831
    10   1 H    0.910 --     1 N    0.896
    11   1 H    0.990 --     2 C    0.968
    12   1 H    0.988 --     2 C    0.966
    13   1 H    0.995 --     3 C    0.973
    14   1 H    0.996 --     3 C    0.970
    15   1 H    0.996 --     4 C    0.974
    16   1 H    0.995 --     4 C    0.974
    17   1 H    0.994 --     5 C    0.974
    18   1 H    0.995 --     5 C    0.976
 ---------------------------------------------------------------------------

molecular dipole:
                 x           y           z       tot (Debye)
 q only:        0.434       4.430      -3.304
   full:       -0.371       3.804      -2.792      12.030

           -------------------------------------------------
          | TOTAL ENERGY              -25.771856847041 Eh   |
          | GRADIENT NORM               0.000775284754 Eh/α |
          | HOMO-LUMO GAP               4.968627538325 eV   |
           -------------------------------------------------

 * finished run on 2023/01/24 at 14:57:49.059
