   * xtb version 6.5.1 (fef0646) compiled by 'conda@b96dff2e9fd6' on 2023-01-04
          program call               : xtb init.xyz --opt -c 1 -u 0 -P 16 --alpb water

   ID    Z sym.   atoms
    1    7 N      1, 10, 11
    2    6 C      2-9, 12-17
    3    1 H      18-33

      * Solvation model:               ALPB
        Solvent                        water
        Solvent mass                       1.8000E+01 g/mol
          :  Hamiltonian                  GFN2-xTB          :
 * total energy  :   -46.5053306 Eh     change       -0.7066987E-09 Eh
 * total energy  :   -46.5109560 Eh     change       -0.5625428E-02 Eh
 * total energy  :   -46.5122821 Eh     change       -0.1326029E-02 Eh
 * total energy  :   -46.5126398 Eh     change       -0.3577975E-03 Eh
 * total energy  :   -46.5129150 Eh     change       -0.2751440E-03 Eh
 * total energy  :   -46.5130864 Eh     change       -0.1714019E-03 Eh
 * total energy  :   -46.5132465 Eh     change       -0.1600966E-03 Eh
 * total energy  :   -46.5133757 Eh     change       -0.1292249E-03 Eh
 * total energy  :   -46.5134724 Eh     change       -0.9670939E-04 Eh
 * total energy  :   -46.5135428 Eh     change       -0.7042376E-04 Eh
 * total energy  :   -46.5137473 Eh     change       -0.3217243E-04 Eh
 * total energy  :   -46.5137886 Eh     change       -0.4129848E-04 Eh
 * total energy  :   -46.5138266 Eh     change       -0.3804050E-04 Eh
 * total energy  :   -46.5139293 Eh     change       -0.1026592E-03 Eh
 * total energy  :   -46.5140034 Eh     change       -0.7418511E-04 Eh
 * total energy  :   -46.5140375 Eh     change       -0.3408414E-04 Eh
 * total energy  :   -46.5140551 Eh     change       -0.1756734E-04 Eh
 * total energy  :   -46.5140615 Eh     change       -0.6379711E-05 Eh
 * total energy  :   -46.5140650 Eh     change       -0.3520810E-05 Eh
   *** GEOMETRY OPTIMIZATION CONVERGED AFTER 22 ITERATIONS ***

 final structure:
================
33
 xtb: 6.5.1 (fef0646)
N            2.77729715514098        0.94646022567466       -3.06711679768473
C            2.53007249895984        1.86984666596217       -1.93327671155248
C            3.15673722083410        1.31346234774136       -0.65451215356431
C            4.65941279039981        1.29707167595141       -0.73636796370927
C            5.37809021515604        2.48570338055822       -0.61016985114578
C            6.75189290163251        2.49329922333281       -0.69761346286049
C            5.35226428477987        0.10892923499975       -0.95509351156738
C            6.73001580362706        0.09959114730410       -1.03152476920644
C            7.44747981468691        1.29442495999133       -0.91165820739100
N            8.82336066072231        1.18411320566741       -0.97173728932378
N            9.47764375624213        2.27636488468487       -1.03839407228448
C           10.85600734137729        2.17523401388647       -1.07485478176873
C           11.56260198924194        0.96492959151703       -1.10093602993298
C           12.94010596288150        0.97456114545800       -1.14241427360316
C           13.63117603118635        2.17909193127541       -1.15761060030796
C           12.93860960326590        3.38092648941637       -1.13411787761283
C           11.55899566498518        3.38493917325724       -1.09540600546549
H            2.42204150656195        1.34019091142047       -3.94580332512400
H            2.31574088285094        0.04470589155880       -2.89832837485697
H            3.78629902402914        0.77790159214020       -3.16225342941305
H            1.45609052936419        1.98804667613371       -1.79565332346272
H            2.96696330692282        2.84143726109410       -2.16238603354763
H            2.78594400197370        0.30741559649205       -0.46084748406093
H            2.85388174267613        1.94643038294132        0.17906182250803
H            4.85427390061499        3.41193543877264       -0.42606772979855
H            7.32003241797271        3.40414620300439       -0.58851097292156
H            4.81692144581430       -0.82516751492273       -1.03584837784898
H            7.27764129297029       -0.81607666559487       -1.18874268382397
H           11.00730033767813        0.03970683577132       -1.09040688400129
H           13.48411864391148        0.04212166385345       -1.16278124574831
H           14.71006389780101        2.17947589541254       -1.18911123494497
H           13.47969711918656        4.31475735850562       -1.14711473948754
H           11.00308625455640        4.30909317674828       -1.07556162448567

          :  Hamiltonian                  GFN2-xTB          :
         :: total energy             -46.514065000989 Eh    ::
         :: gradient norm              0.000287481898 Eh/a0 ::
         :: HOMO-LUMO gap              0.743180179959 eV    ::
         :: SCC energy               -47.295538545787 Eh    ::
         :: -> dispersion             -0.029304824830 Eh    ::
         :: -> Gsolv                  -0.127528448303 Eh    ::
         :: repulsion energy           0.781719504719 Eh    ::

    * Orbital Energies and Occupations

         #    Occupation            Energy/Eh            Energy/eV
      -------------------------------------------------------------
         1        2.0000           -0.6949230             -18.9098
       ...           ...                  ...                  ...
        31        2.0000           -0.4806474             -13.0791
        32        2.0000           -0.4672129             -12.7135
        33        2.0000           -0.4636697             -12.6171
        34        2.0000           -0.4578955             -12.4600
        35        2.0000           -0.4396996             -11.9648
        36        2.0000           -0.4381459             -11.9226
        37        2.0000           -0.4265894             -11.6081
        38        2.0000           -0.4255364             -11.5794
        39        2.0000           -0.4237024             -11.5295
        40        2.0000           -0.4150036             -11.2928
        41        2.0000           -0.4131697             -11.2429
        42        2.0000           -0.3915645             -10.6550
        43        2.0000           -0.3395184              -9.2388 (HOMO)
        44        0.0000           -0.3122070              -8.4956 (LUMO)
        45                         -0.2318542              -6.3091
        46                         -0.2300863              -6.2610
        47                         -0.2231211              -6.0714
        48                         -0.1973060              -5.3690
        49                         -0.0991464              -2.6979
        50                         -0.0886981              -2.4136
        51                         -0.0474362              -1.2908
        52                          0.0575713               1.5666
        53                          0.0761655               2.0726
        54                          0.0792715               2.1571
       ...                                ...                  ...
        84                          0.6591450              17.9362
      -------------------------------------------------------------
                  HL-Gap            0.0273114 Eh            0.7432 eV

     #   Z          covCN         q      C6AA      α(0)
     1   7 N        3.485    -0.155    24.343     7.328
     2   6 C        3.733    -0.037    21.330     6.592
     3   6 C        3.808    -0.097    22.334     6.727
     4   6 C        2.969     0.019    27.582     8.615
     5   6 C        2.921    -0.044    29.082     8.843
     6   6 C        2.916    -0.037    28.929     8.820
     7   6 C        2.920    -0.051    29.269     8.872
     8   6 C        2.925    -0.040    28.982     8.829
     9   6 C        2.941     0.069    26.450     8.435
    10   7 N        1.942    -0.174    25.559     7.497
    11   7 N        1.944    -0.171    25.493     7.487
    12   6 C        2.939     0.072    26.381     8.424
    13   6 C        2.918    -0.038    28.949     8.823
    14   6 C        2.917    -0.033    28.818     8.803
    15   6 C        2.920    -0.028    28.694     8.784
    16   6 C        2.917    -0.033    28.827     8.804
    17   6 C        2.927    -0.039    28.960     8.825
    18   1 H        0.859     0.318     0.662     1.275
    19   1 H        0.859     0.312     0.680     1.292
    20   1 H        0.859     0.294     0.733     1.341
    21   1 H        0.925     0.121     1.605     1.981
    22   1 H        0.925     0.111     1.686     2.030
    23   1 H        0.925     0.087     1.904     2.158
    24   1 H        0.925     0.089     1.887     2.148
    25   1 H        0.926     0.059     2.209     2.324
    26   1 H        0.926     0.044     2.394     2.419
    27   1 H        0.926     0.071     2.080     2.255
    28   1 H        0.926     0.052     2.291     2.367
    29   1 H        0.926     0.057     2.231     2.336
    30   1 H        0.926     0.046     2.374     2.409
    31   1 H        0.926     0.048     2.351     2.397
    32   1 H        0.926     0.048     2.350     2.397
    33   1 H        0.926     0.059     2.213     2.326

Wiberg/Mayer (AO) data.
largest (>0.10) Wiberg bond orders for each atom

     #   Z sym  total        # sym  WBO       # sym  WBO       # sym  WBO
 ---------------------------------------------------------------------------
     1   7 N    3.657 --     2 C    0.966    20 H    0.895    19 H    0.888
                            18 H    0.885
     2   6 C    3.922 --     3 C    0.997     1 N    0.966    22 H    0.965
                            21 H    0.963
     3   6 C    3.986 --     4 C    1.014     2 C    0.997    23 H    0.966
                            24 H    0.956
     4   6 C    3.966 --     7 C    1.397     5 C    1.381     3 C    1.014
     5   6 C    3.988 --     6 C    1.486     4 C    1.381    25 H    0.966
     6   6 C    3.982 --     5 C    1.486     9 C    1.322    26 H    0.967
     7   6 C    3.985 --     8 C    1.466     4 C    1.397    27 H    0.964
     8   6 C    3.971 --     7 C    1.466     9 C    1.337    28 H    0.968
     9   6 C    3.974 --     8 C    1.337     6 C    1.322    10 N    1.153
    10   7 N    3.031 --    11 N    1.645     9 C    1.153
    11   7 N    3.026 --    10 N    1.645    12 C    1.156
    12   6 C    3.979 --    17 C    1.337    13 C    1.329    11 N    1.156
    13   6 C    3.982 --    14 C    1.477    12 C    1.329    29 H    0.966
                            16 C    0.101
    14   6 C    3.991 --    13 C    1.477    15 C    1.416    30 H    0.969
    15   6 C    3.968 --    16 C    1.426    14 C    1.416    31 H    0.970
    16   6 C    3.991 --    17 C    1.466    15 C    1.426    32 H    0.969
                            13 C    0.101
    17   6 C    3.972 --    16 C    1.466    12 C    1.337    33 H    0.967
    18   1 H    0.899 --     1 N    0.885
    19   1 H    0.903 --     1 N    0.888
    20   1 H    0.914 --     1 N    0.895
    21   1 H    0.985 --     2 C    0.963
    22   1 H    0.988 --     2 C    0.965
    23   1 H    0.992 --     3 C    0.966
    24   1 H    0.990 --     3 C    0.956
    25   1 H    0.996 --     5 C    0.966
    26   1 H    0.998 --     6 C    0.967
    27   1 H    0.995 --     7 C    0.964
    28   1 H    0.997 --     8 C    0.968
    29   1 H    0.997 --    13 C    0.966
    30   1 H    0.998 --    14 C    0.969
    31   1 H    0.998 --    15 C    0.970
    32   1 H    0.997 --    16 C    0.969
    33   1 H    0.997 --    17 C    0.967
 ---------------------------------------------------------------------------

molecular dipole:
                 x           y           z       tot (Debye)
 q only:        4.595       1.878      -5.497
   full:        5.001       1.857      -5.495      19.466

           -------------------------------------------------
          | TOTAL ENERGY              -46.514065000989 Eh   |
          | GRADIENT NORM               0.000287481898 Eh/α |
          | HOMO-LUMO GAP               0.743180179959 eV   |
           -------------------------------------------------

 * finished run on 2023/01/24 at 15:25:07.903
