   * xtb version 6.5.1 (fef0646) compiled by 'conda@b96dff2e9fd6' on 2023-01-04
          program call               : xtb init.xyz --opt -c 1 -u 0 -P 16 --alpb water

   ID    Z sym.   atoms
    1    7 N      1
    2    6 C      2-6
    3    1 H      7-20

      * Solvation model:               ALPB
        Solvent                        water
        Solvent mass                       1.8000E+01 g/mol
          :  Hamiltonian                  GFN2-xTB          :
 * total energy  :   -20.4427827 Eh     change       -0.8554935E-11 Eh
 * total energy  :   -20.4438024 Eh     change       -0.1019696E-02 Eh
 * total energy  :   -20.4438946 Eh     change       -0.9214954E-04 Eh
 * total energy  :   -20.4439054 Eh     change       -0.1077268E-04 Eh
 * total energy  :   -20.4439071 Eh     change       -0.1733127E-05 Eh
   *** GEOMETRY OPTIMIZATION CONVERGED AFTER 5 ITERATIONS ***

 final structure:
================
20
 xtb: 6.5.1 (fef0646)
N            1.01753576234184       -0.05131674539401        0.03017939643522
C            2.50097098939457       -0.05188227969257        0.04561894810967
C            3.02511408190226       -0.33780489228503        1.44835829954528
C            4.55326284792092       -0.34397203683477        1.46930346777684
C            5.09773728127935       -0.62513011496740        2.86876040452948
C            6.62180351961294       -0.63143423384096        2.88903188536653
H            0.66269490623961        0.14415947612438       -0.91274917367991
H            0.65891808731787        0.66436513585926        0.67329163803965
H            0.66138644562472       -0.96509989890055        0.33470168629700
H            2.86283146802506        0.91990512462078       -0.28969486410057
H            2.86598776488192       -0.81257144234888       -0.64420540980857
H            2.67085345140442       -1.30968957458541        1.79438226275223
H            2.67280015104341        0.42287595786560        2.14627868918074
H            4.93309476008924        0.62198864812489        1.13106385009068
H            4.93073289462651       -1.10595431938917        0.78468617344314
H            4.73290347463238       -1.59377012374516        3.21735906299887
H            4.73552671896016        0.13576536345077        3.56356838271177
H            7.01296869806553       -1.39804308367235        2.22335367474043
H            6.99155458761530       -0.83242721416618        3.89198014127158
H            7.01549210902197        0.33103625377675        2.56893148429994

          :  Hamiltonian                  GFN2-xTB          :
         :: total energy             -20.443907091181 Eh    ::
         :: gradient norm              0.000398837269 Eh/a0 ::
         :: HOMO-LUMO gap             10.046489267399 eV    ::
         :: SCC energy               -20.742617614569 Eh    ::
         :: -> dispersion             -0.009322392009 Eh    ::
         :: -> Gsolv                  -0.117345528864 Eh    ::
         :: repulsion energy           0.298731798119 Eh    ::

    * Orbital Energies and Occupations

         #    Occupation            Energy/Eh            Energy/eV
      -------------------------------------------------------------
         1        2.0000           -0.6924449             -18.8424
       ...           ...                  ...                  ...
         7        2.0000           -0.5683446             -15.4654
         8        2.0000           -0.5558836             -15.1264
         9        2.0000           -0.5422628             -14.7557
        10        2.0000           -0.5226553             -14.2222
        11        2.0000           -0.4963172             -13.5055
        12        2.0000           -0.4921520             -13.3921
        13        2.0000           -0.4883055             -13.2875
        14        2.0000           -0.4633644             -12.6088
        15        2.0000           -0.4593710             -12.5001
        16        2.0000           -0.4401281             -11.9765
        17        2.0000           -0.4365662             -11.8796
        18        2.0000           -0.4313852             -11.7386
        19        2.0000           -0.4206983             -11.4478 (HOMO)
        20                         -0.0514966              -1.4013 (LUMO)
        21                          0.0466227               1.2687
        22                          0.0757207               2.0605
        23                          0.0981435               2.6706
        24                          0.1070298               2.9124
        25                          0.1308326               3.5601
        26                          0.1380539               3.7566
        27                          0.1388319               3.7778
        28                          0.1621723               4.4129
        29                          0.1712083               4.6588
        30                          0.1887753               5.1368
       ...                                ...                  ...
        38                          0.3143488               8.5539
      -------------------------------------------------------------
                  HL-Gap            0.3692017 Eh           10.0465 eV

     #   Z          covCN         q      C6AA      α(0)
     1   7 N        3.485    -0.162    24.492     7.350
     2   6 C        3.733    -0.038    21.340     6.594
     3   6 C        3.803    -0.086    22.134     6.698
     4   6 C        3.804    -0.071    21.862     6.657
     5   6 C        3.801    -0.062    21.692     6.631
     6   6 C        3.752    -0.112    22.699     6.794
     7   1 H        0.859     0.316     0.667     1.279
     8   1 H        0.859     0.309     0.688     1.300
     9   1 H        0.859     0.309     0.688     1.299
    10   1 H        0.925     0.107     1.724     2.053
    11   1 H        0.925     0.107     1.724     2.054
    12   1 H        0.924     0.065     2.137     2.286
    13   1 H        0.924     0.065     2.138     2.287
    14   1 H        0.924     0.043     2.408     2.427
    15   1 H        0.924     0.043     2.408     2.427
    16   1 H        0.924     0.035     2.514     2.479
    17   1 H        0.924     0.035     2.514     2.480
    18   1 H        0.925     0.034     2.528     2.486
    19   1 H        0.925     0.028     2.617     2.530
    20   1 H        0.925     0.034     2.527     2.486

Wiberg/Mayer (AO) data.
largest (>0.10) Wiberg bond orders for each atom

     #   Z sym  total        # sym  WBO       # sym  WBO       # sym  WBO
 ---------------------------------------------------------------------------
     1   7 N    3.653 --     2 C    0.966     8 H    0.890     9 H    0.890
                             7 H    0.887
     2   6 C    3.927 --     3 C    1.011    11 H    0.967    10 H    0.967
                             1 N    0.966
     3   6 C    3.991 --     2 C    1.011     4 C    1.004    13 H    0.973
                            12 H    0.973
     4   6 C    3.995 --     5 C    1.008     3 C    1.004    15 H    0.977
                            14 H    0.977
     5   6 C    3.996 --     6 C    1.019     4 C    1.008    16 H    0.978
                            17 H    0.978
     6   6 C    3.996 --     5 C    1.019    18 H    0.988    20 H    0.988
                            19 H    0.988
     7   1 H    0.900 --     1 N    0.887
     8   1 H    0.905 --     1 N    0.890
     9   1 H    0.905 --     1 N    0.890
    10   1 H    0.989 --     2 C    0.967
    11   1 H    0.989 --     2 C    0.967
    12   1 H    0.996 --     3 C    0.973
    13   1 H    0.996 --     3 C    0.973
    14   1 H    0.998 --     4 C    0.977
    15   1 H    0.998 --     4 C    0.977
    16   1 H    0.999 --     5 C    0.978
    17   1 H    0.999 --     5 C    0.978
    18   1 H    0.999 --     6 C    0.988
    19   1 H    0.999 --     6 C    0.988
    20   1 H    0.999 --     6 C    0.988
 ---------------------------------------------------------------------------

molecular dipole:
                 x           y           z       tot (Debye)
 q only:        2.099      -0.099       0.070
   full:        2.072      -0.108       0.114       5.281

           -------------------------------------------------
          | TOTAL ENERGY              -20.443907091181 Eh   |
          | GRADIENT NORM               0.000398837269 Eh/α |
          | HOMO-LUMO GAP              10.046489267399 eV   |
           -------------------------------------------------

 * finished run on 2023/01/24 at 16:06:38.236
