   * xtb version 6.5.1 (fef0646) compiled by 'conda@b96dff2e9fd6' on 2023-01-04
          program call               : xtb init.xyz --opt -c 1 -u 0 -P 16 --input xtb.inp

   ID    Z sym.   atoms
    1    7 N      1
    2    6 C      2-6
    3    1 H      7-20

          :  Hamiltonian                  GFN2-xTB          :
 * total energy  :   -20.3321428 Eh     change       -0.1180922E-10 Eh
 * total energy  :   -20.3331072 Eh     change       -0.9643744E-03 Eh
 * total energy  :   -20.3332035 Eh     change       -0.9629547E-04 Eh
 * total energy  :   -20.3332168 Eh     change       -0.1329031E-04 Eh
 * total energy  :   -20.3332184 Eh     change       -0.1673924E-05 Eh
   *** GEOMETRY OPTIMIZATION CONVERGED AFTER 5 ITERATIONS ***

 final structure:
================
20
 xtb: 6.5.1 (fef0646)
N            0.85981920404254       -0.01271642563346       -0.01454372205563
C            2.35898789795487       -0.02237036680532       -0.02914322961632
C            2.87659356121829       -0.68951791005219       -1.29425920688360
C            4.40801474657498       -0.70105527718318       -1.31588956063027
C            4.94771217007945       -1.36934608346433       -2.58017369302868
C            6.47079626587516       -1.37796176126136       -2.59570505114523
H            0.49269970294561        0.43493122955925        0.83451074678883
H            0.50721511038949       -0.97806299502746       -0.06135587421269
H            0.50917038260900        0.49551518502427       -0.83743874025414
H            2.70827605723320       -0.55918833161361        0.85378054863333
H            2.71032695714012        1.00867136018358        0.02781953534206
H            2.51687318589670       -0.15322606639316       -2.17459089369948
H            2.51671783945398       -1.71882494732224       -1.34904836844918
H            4.78059726681115       -1.23611525908972       -0.44112907637637
H            4.78068757317845        0.32308471659280       -1.26524471012283
H            4.57946108544938       -0.83547321834743       -3.45819969700273
H            4.57906946947392       -2.39540354742342       -2.63375616776859
H            6.86094766207926       -0.36375715338888       -2.56445504068728
H            6.83441290813272       -1.85630489932299       -3.50029239500112
H            6.86052095346172       -1.92340824903115       -1.73989540383006

          :  Hamiltonian                  GFN2-xTB          :
         :: total energy             -20.333218431566 Eh    ::
         :: gradient norm              0.000391951499 Eh/a0 ::
         :: HOMO-LUMO gap              7.105194239514 eV    ::
         :: SCC energy               -20.630559009229 Eh    ::
         :: -> dispersion             -0.009241695124 Eh    ::
         :: repulsion energy           0.297361792861 Eh    ::

    * Orbital Energies and Occupations

         #    Occupation            Energy/Eh            Energy/eV
      -------------------------------------------------------------
         1        2.0000           -0.8983369             -24.4450
       ...           ...                  ...                  ...
         7        2.0000           -0.7258691             -19.7519
         8        2.0000           -0.6954807             -18.9250
         9        2.0000           -0.6900686             -18.7777
        10        2.0000           -0.6687098             -18.1965
        11        2.0000           -0.6468545             -17.6018
        12        2.0000           -0.6381822             -17.3658
        13        2.0000           -0.6190494             -16.8452
        14        2.0000           -0.6028046             -16.4031
        15        2.0000           -0.5851882             -15.9238
        16        2.0000           -0.5651292             -15.3779
        17        2.0000           -0.5536955             -15.0668
        18        2.0000           -0.5374866             -14.6258
        19        2.0000           -0.5293904             -14.4054 (HOMO)
        20                         -0.2682794              -7.3003 (LUMO)
        21                         -0.1647794              -4.4839
        22                         -0.1059157              -2.8821
        23                         -0.1045013              -2.8436
        24                         -0.0606920              -1.6515
        25                         -0.0367087              -0.9989
        26                         -0.0183166              -0.4984
        27                         -0.0043894              -0.1194
        28                          0.0162116               0.4411
        29                          0.0375739               1.0224
        30                          0.0392567               1.0682
       ...                                ...                  ...
        38                          0.1991012               5.4178
      -------------------------------------------------------------
                  HL-Gap            0.2611111 Eh            7.1052 eV

     #   Z          covCN         q      C6AA      α(0)
     1   7 N        3.482    -0.128    23.766     7.241
     2   6 C        3.731    -0.034    21.271     6.583
     3   6 C        3.803    -0.081    22.046     6.685
     4   6 C        3.804    -0.068    21.792     6.646
     5   6 C        3.801    -0.058    21.615     6.619
     6   6 C        3.753    -0.112    22.707     6.795
     7   1 H        0.859     0.270     0.810     1.410
     8   1 H        0.859     0.272     0.802     1.402
     9   1 H        0.859     0.272     0.802     1.402
    10   1 H        0.924     0.107     1.723     2.053
    11   1 H        0.924     0.107     1.723     2.053
    12   1 H        0.924     0.062     2.181     2.309
    13   1 H        0.924     0.062     2.180     2.309
    14   1 H        0.924     0.051     2.304     2.374
    15   1 H        0.924     0.051     2.304     2.374
    16   1 H        0.924     0.041     2.431     2.438
    17   1 H        0.924     0.041     2.431     2.438
    18   1 H        0.925     0.045     2.385     2.415
    19   1 H        0.925     0.054     2.272     2.357
    20   1 H        0.925     0.045     2.385     2.415

Wiberg/Mayer (AO) data.
largest (>0.10) Wiberg bond orders for each atom

     #   Z sym  total        # sym  WBO       # sym  WBO       # sym  WBO
 ---------------------------------------------------------------------------
     1   7 N    3.675 --     2 C    0.919     7 H    0.913     8 H    0.910
                             9 H    0.910
     2   6 C    3.884 --     3 C    1.008    10 H    0.967    11 H    0.967
                             1 N    0.919
     3   6 C    3.979 --     2 C    1.008     4 C    0.994    13 H    0.972
                            12 H    0.972
     4   6 C    3.987 --     5 C    1.004     3 C    0.994    15 H    0.976
                            14 H    0.976
     5   6 C    3.994 --     6 C    1.019     4 C    1.004    16 H    0.978
                            17 H    0.978
     6   6 C    3.992 --     5 C    1.019    18 H    0.987    20 H    0.987
                            19 H    0.985
     7   1 H    0.927 --     1 N    0.913
     8   1 H    0.926 --     1 N    0.910
     9   1 H    0.926 --     1 N    0.910
    10   1 H    0.989 --     2 C    0.967
    11   1 H    0.989 --     2 C    0.967
    12   1 H    0.996 --     3 C    0.972
    13   1 H    0.996 --     3 C    0.972
    14   1 H    0.997 --     4 C    0.976
    15   1 H    0.997 --     4 C    0.976
    16   1 H    0.998 --     5 C    0.978
    17   1 H    0.998 --     5 C    0.978
    18   1 H    0.998 --     6 C    0.987
    19   1 H    0.997 --     6 C    0.985
    20   1 H    0.998 --     6 C    0.987
 ---------------------------------------------------------------------------

molecular dipole:
                 x           y           z       tot (Debye)
 q only:        2.679      -0.235      -0.426
   full:        2.338      -0.183      -0.328       6.019

           -------------------------------------------------
          | TOTAL ENERGY              -20.333218431566 Eh   |
          | GRADIENT NORM               0.000391951499 Eh/α |
          | HOMO-LUMO GAP               7.105194239514 eV   |
           -------------------------------------------------

 * finished run on 2023/01/23 at 20:08:48.454
