   * xtb version 6.5.1 (fef0646) compiled by 'conda@b96dff2e9fd6' on 2023-01-04
          program call               : xtb init.xyz --opt -c 0 -u 0 -P 16 --alpb water

   ID    Z sym.   atoms
    1    7 N      1, 16, 19
    2    6 C      2-15, 17, 18, 20-25
    3   16 S      26-29
    4   17 Cl     30
    5    1 H      31-48

      * Solvation model:               ALPB
        Solvent                        water
        Solvent mass                       1.8000E+01 g/mol
          :  Hamiltonian                  GFN2-xTB          :
 * total energy  :   -82.5423874 Eh     change       -0.1875392E-08 Eh
 * total energy  :   -82.5529356 Eh     change       -0.1054822E-01 Eh
 * total energy  :   -82.5581884 Eh     change       -0.5252790E-02 Eh
 * total energy  :   -82.5598712 Eh     change       -0.1682811E-02 Eh
 * total energy  :   -82.5611395 Eh     change       -0.1268241E-02 Eh
 * total energy  :   -82.5620047 Eh     change       -0.8652040E-03 Eh
 * total energy  :   -82.5626729 Eh     change       -0.6682486E-03 Eh
 * total energy  :   -82.5633063 Eh     change       -0.6333336E-03 Eh
 * total energy  :   -82.5637713 Eh     change       -0.4650601E-03 Eh
 * total energy  :   -82.5641050 Eh     change       -0.3336883E-03 Eh
 * total energy  :   -82.5711106 Eh     change       -0.3774177E-04 Eh
 * total energy  :   -82.5711296 Eh     change       -0.1897027E-04 Eh
 * total energy  :   -82.5711396 Eh     change       -0.1002547E-04 Eh
 * total energy  :   -82.5711519 Eh     change       -0.1230027E-04 Eh
 * total energy  :   -82.5711634 Eh     change       -0.1144138E-04 Eh
 * total energy  :   -82.5711717 Eh     change       -0.8378067E-05 Eh
 * total energy  :   -82.5711793 Eh     change       -0.7533699E-05 Eh
 * total energy  :   -82.5711854 Eh     change       -0.6162746E-05 Eh
 * total energy  :   -82.5711888 Eh     change       -0.3328245E-05 Eh
   *** GEOMETRY OPTIMIZATION CONVERGED AFTER 62 ITERATIONS ***

 final structure:
================
48
 xtb: 6.5.1 (fef0646)
N            1.73217184282642        1.01731636488044        0.27511522636418
C            2.80936693569409        0.25907100406243       -0.38572428269708
C            4.16249678980365        0.57506226582148        0.25301492953513
C            5.24639226907092       -0.30487954008198       -0.27370185426234
C            5.42428512028398       -0.79484284701278       -1.53600359013828
C            6.57045372633943       -1.59505114863491       -1.66632061341953
C            7.28169177355089       -1.72159411973604       -0.49775297259157
C            8.47655761558258       -2.45490440541575       -0.26414575790844
C            9.19008014046424       -2.57224562146969        0.90551913574942
C           10.32733975167923       -3.38314235623106        0.80805141318815
C           11.23376465209845       -3.63961178431233        1.95940215917305
C           10.49273257487953       -3.90136424763713       -0.47178841435614
C           11.50689147732570       -4.76098419472163       -0.96033518158179
C           11.68248545703731       -5.24002399697052       -2.25336117287488
C           10.88127352801600       -4.93796269621747       -3.35761309966484
N           10.25949729704820       -4.71759354614375       -4.30142628671732
C           12.81218996819685       -6.10750029081218       -2.38935052583660
C           13.11828171330004       -6.67672767414410       -3.62985625083711
N           13.31669047884229       -7.11474734032629       -4.67559358215238
C           13.50856508216744       -6.29758190637756       -1.20488660793338
C           14.66774349789159       -7.08838323625547       -0.97639533006092
C           15.35110155707271       -7.30460896170378        0.20976548139831
C           14.99328843626644       -6.72693456128214        1.53335917794605
C           16.45861338563819       -8.15977734061570        0.02626327124728
C           16.61517713598313       -8.57968750191230       -1.25557471511369
S           15.41230413782568       -7.95103503002032       -2.30747476215459
S           12.75507706325873       -5.39237748480747        0.07392192644416
S            9.21696736272186       -3.36707900848578       -1.54920648331563
S            6.51411524145922       -0.83378270356300        0.78366646429762
Cl          -0.81253185427955        0.48051427145674       -1.29467653581569
H            0.82030557821089        0.83682053990902       -0.22111899322418
H            1.90891322171575        2.02383659056508        0.22899196740957
H            1.62162468892639        0.73352238246568        1.25156245199932
H            2.80973430951747        0.51865641340146       -1.44309563052643
H            2.59038592450810       -0.80486564444793       -0.30295403003167
H            4.11065871209637        0.43689763783799        1.33365471627934
H            4.42990937730920        1.61707315478457        0.05836719402849
H            4.75809448181831       -0.59682110443487       -2.35501095774885
H            6.87841543599706       -2.07076602403069       -2.58161813568189
H            8.89003569330022       -2.08000092712904        1.81353856234802
H           10.88796363010461       -3.08805187198786        2.82784710827841
H           12.25120365000108       -3.33014052496440        1.72533558135194
H           11.25519287895636       -4.70117128273393        2.20153566709587
H           13.98230382697374       -7.01353945670317        1.81950275861947
H           15.03640978326453       -5.63897331873631        1.50336508694953
H           15.68667598809168       -7.08474006060824        2.28825617609812
H           17.11413950558483       -8.44981635888447        0.82662024289115
H           17.36689915557625       -9.22698050564711       -1.66010093205250

          :  Hamiltonian                  GFN2-xTB          :
         :: total energy             -82.571188761016 Eh    ::
         :: gradient norm              0.000666376177 Eh/a0 ::
         :: HOMO-LUMO gap              1.649728768104 eV    ::
         :: SCC energy               -83.810140247373 Eh    ::
         :: -> dispersion             -0.064771962661 Eh    ::
         :: -> Gsolv                  -0.104842189285 Eh    ::
         :: repulsion energy           1.239744652965 Eh    ::

    * Orbital Energies and Occupations

         #    Occupation            Energy/Eh            Energy/eV
      -------------------------------------------------------------
         1        2.0000           -1.0069646             -27.4009
       ...           ...                  ...                  ...
        64        2.0000           -0.4404062             -11.9841
        65        2.0000           -0.4387511             -11.9390
        66        2.0000           -0.4382219             -11.9246
        67        2.0000           -0.4210522             -11.4574
        68        2.0000           -0.4160554             -11.3214
        69        2.0000           -0.4041101             -10.9964
        70        2.0000           -0.4036881             -10.9849
        71        2.0000           -0.4029315             -10.9643
        72        2.0000           -0.4004184             -10.8959
        73        2.0000           -0.4003792             -10.8949
        74        2.0000           -0.4000476             -10.8858
        75        2.0000           -0.3896480             -10.6029
        76        2.0000           -0.3657622              -9.9529 (HOMO)
        77                         -0.3051357              -8.3032 (LUMO)
        78                         -0.2934330              -7.9847
        79                         -0.2597011              -7.0668
        80                         -0.2434845              -6.6256
        81                         -0.2358872              -6.4188
        82                         -0.2334802              -6.3533
        83                         -0.2250745              -6.1246
        84                         -0.2169649              -5.9039
        85                         -0.2115310              -5.7561
        86                         -0.2048663              -5.5747
        87                         -0.1905552              -5.1853
       ...                                ...                  ...
       163                          1.1739282              31.9442
      -------------------------------------------------------------
                  HL-Gap            0.0606264 Eh            1.6497 eV

     #   Z          covCN         q      C6AA      α(0)
     1   7 N        3.483    -0.168    24.617     7.369
     2   6 C        3.734    -0.022    21.062     6.550
     3   6 C        3.829    -0.092    22.227     6.708
     4   6 C        2.987     0.034    27.237     8.561
     5   6 C        3.108    -0.061    29.363     8.878
     6   6 C        3.109    -0.048    29.050     8.830
     7   6 C        3.024     0.009    27.782     8.646
     8   6 C        3.018     0.034    27.211     8.557
     9   6 C        3.096    -0.064    29.464     8.896
    10   6 C        3.110     0.016    27.498     8.591
    11   6 C        3.758    -0.135    23.150     6.860
    12   6 C        3.023     0.006    27.868     8.659
    13   6 C        3.013     0.025    27.427     8.591
    14   6 C        3.152    -0.015    28.105     8.671
    15   6 C        1.909     0.120    28.157     8.570
    16   7 N        0.911    -0.309    27.942     7.645
    17   6 C        3.153    -0.013    28.037     8.660
    18   6 C        1.908     0.120    28.147     8.568
    19   7 N        0.911    -0.304    27.815     7.628
    20   6 C        3.010     0.025    27.431     8.591
    21   6 C        3.024     0.006    27.859     8.658
    22   6 C        3.123     0.014    27.517     8.590
    23   6 C        3.758    -0.134    23.137     6.858
    24   6 C        3.108    -0.054    29.199     8.853
    25   6 C        2.933    -0.014    28.357     8.733
    26  16 S        2.301    -0.066   143.816    20.184
    27  16 S        2.366     0.041   139.385    19.871
    28  16 S        2.322    -0.091   144.829    20.255
    29  16 S        2.361    -0.016   141.706    20.035
    30  17 Cl       0.062    -0.945   124.785    17.001
    31   1 H        0.918     0.298     0.714     1.322
    32   1 H        0.859     0.302     0.709     1.319
    33   1 H        0.859     0.302     0.706     1.317
    34   1 H        0.925     0.100     1.789     2.092
    35   1 H        0.925     0.103     1.761     2.075
    36   1 H        0.924     0.101     1.774     2.083
    37   1 H        0.924     0.102     1.771     2.081
    38   1 H        0.926     0.057     2.234     2.337
    39   1 H        0.926     0.035     2.513     2.479
    40   1 H        0.926     0.073     2.054     2.241
    41   1 H        0.925     0.083     1.953     2.185
    42   1 H        0.925     0.079     1.988     2.205
    43   1 H        0.925     0.081     1.969     2.194
    44   1 H        0.925     0.080     1.979     2.200
    45   1 H        0.925     0.081     1.965     2.192
    46   1 H        0.925     0.080     1.979     2.200
    47   1 H        0.926     0.071     2.069     2.249
    48   1 H        0.926     0.072     2.061     2.245

Wiberg/Mayer (AO) data.
largest (>0.10) Wiberg bond orders for each atom

     #   Z sym  total        # sym  WBO       # sym  WBO       # sym  WBO
 ---------------------------------------------------------------------------
     1   7 N    3.644 --     2 C    0.975    32 H    0.894    33 H    0.894
                            31 H    0.826
     2   6 C    3.932 --     3 C    0.998     1 N    0.975    35 H    0.967
                            34 H    0.967
     3   6 C    3.984 --     4 C    1.027     2 C    0.998    36 H    0.961
                            37 H    0.944
     4   6 C    3.923 --     5 C    1.555    29 S    1.172     3 C    1.027
     5   6 C    3.981 --     4 C    1.555     6 C    1.316    38 H    0.961
     6   6 C    3.968 --     7 C    1.489     5 C    1.316    39 H    0.961
     7   6 C    3.950 --     6 C    1.489     8 C    1.174    29 S    1.117
     8   6 C    3.935 --     9 C    1.460     7 C    1.174    28 S    1.126
     9   6 C    3.976 --     8 C    1.460    10 C    1.331    40 H    0.957
    10   6 C    3.972 --    12 C    1.398     9 C    1.331    11 C    1.036
    11   6 C    3.987 --    10 C    1.036    41 H    0.976    42 H    0.955
                            43 H    0.953
    12   6 C    3.922 --    10 C    1.398    13 C    1.217    28 S    1.095
    13   6 C    3.950 --    14 C    1.374    12 C    1.217    27 S    1.129
    14   6 C    3.957 --    13 C    1.374    17 C    1.162    15 C    1.136
    15   6 C    3.939 --    16 N    2.732    14 C    1.136
    16   7 N    2.970 --    15 C    2.732
    17   6 C    3.973 --    20 C    1.391    14 C    1.162    18 C    1.131
    18   6 C    3.940 --    19 N    2.740    17 C    1.131
    19   7 N    2.968 --    18 C    2.740
    20   6 C    3.948 --    17 C    1.391    21 C    1.196    27 S    1.132
    21   6 C    3.938 --    22 C    1.435    20 C    1.196    26 S    1.107
    22   6 C    3.957 --    21 C    1.435    24 C    1.282    23 C    1.037
    23   6 C    3.988 --    22 C    1.037    46 H    0.976    44 H    0.954
                            45 H    0.954
    24   6 C    3.982 --    25 C    1.596    22 C    1.282    47 H    0.960
    25   6 C    3.929 --    24 C    1.596    26 S    1.201    48 H    0.965
    26  16 S    2.613 --    25 C    1.201    21 C    1.107
    27  16 S    2.661 --    20 C    1.132    13 C    1.129
    28  16 S    2.566 --     8 C    1.126    12 C    1.095
    29  16 S    2.589 --     4 C    1.172     7 C    1.117
    30  17 Cl   0.107
    31   1 H    0.911 --     1 N    0.826
    32   1 H    0.909 --     1 N    0.894
    33   1 H    0.909 --     1 N    0.894
    34   1 H    0.990 --     2 C    0.967
    35   1 H    0.989 --     2 C    0.967
    36   1 H    0.989 --     3 C    0.961
    37   1 H    0.986 --     3 C    0.944
    38   1 H    0.996 --     5 C    0.961
    39   1 H    0.999 --     6 C    0.961
    40   1 H    0.994 --     9 C    0.957
    41   1 H    0.992 --    11 C    0.976
    42   1 H    0.992 --    11 C    0.955
    43   1 H    0.992 --    11 C    0.953
    44   1 H    0.992 --    23 C    0.954
    45   1 H    0.992 --    23 C    0.954
    46   1 H    0.992 --    23 C    0.976
    47   1 H    0.994 --    24 C    0.960
    48   1 H    0.994 --    25 C    0.965
 ---------------------------------------------------------------------------

molecular dipole:
                 x           y           z       tot (Debye)
 q only:        4.652       2.277       7.949
   full:        4.237       1.922       7.281      21.962

           -------------------------------------------------
          | TOTAL ENERGY              -82.571188761016 Eh   |
          | GRADIENT NORM               0.000666376177 Eh/α |
          | HOMO-LUMO GAP               1.649728768104 eV   |
           -------------------------------------------------

 * finished run on 2023/01/24 at 15:34:38.270
