   * xtb version 6.5.1 (fef0646) compiled by 'conda@b96dff2e9fd6' on 2023-01-04
          program call               : xtb init.xyz --opt -c 1 -u 0 -P 16 --alpb water

   ID    Z sym.   atoms
    1    7 N      1
    2    6 C      2-4
    3    1 H      5-12

      * Solvation model:               ALPB
        Solvent                        water
        Solvent mass                       1.8000E+01 g/mol
          :  Hamiltonian                  GFN2-xTB          :
 * total energy  :   -13.0609679 Eh     change       -0.4321876E-11 Eh
 * total energy  :   -13.0619205 Eh     change       -0.9525950E-03 Eh
 * total energy  :   -13.0621121 Eh     change       -0.1915835E-03 Eh
 * total energy  :   -13.0622342 Eh     change       -0.1221673E-03 Eh
 * total energy  :   -13.0623195 Eh     change       -0.8530405E-04 Eh
 * total energy  :   -13.0624371 Eh     change       -0.1175647E-03 Eh
 * total energy  :   -13.0625219 Eh     change       -0.8475808E-04 Eh
 * total energy  :   -13.0626268 Eh     change       -0.1048851E-03 Eh
 * total energy  :   -13.0626514 Eh     change       -0.2462457E-04 Eh
 * total energy  :   -13.0626691 Eh     change       -0.1776836E-04 Eh
 * total energy  :   -13.0626738 Eh     change       -0.4647967E-05 Eh
 * total energy  :   -13.0626760 Eh     change       -0.2234911E-05 Eh
   *** GEOMETRY OPTIMIZATION CONVERGED AFTER 12 ITERATIONS ***

 final structure:
================
12
 xtb: 6.5.1 (fef0646)
N            1.04226363346657       -0.04167947028231       -0.17307713817938
C            2.50889015749547       -0.05791713400012       -0.07309986129627
C            3.28948369291927        0.75655015906830       -1.05611747034859
C            3.27936527607020       -0.74159233302816       -1.15843344449922
H            0.65208993541651        0.75944504906592        0.34058240212007
H            0.64263832209600       -0.90813480118777        0.21146419458927
H            0.76019519632147        0.03651315666192       -1.15860531861462
H            2.86278660368288       -0.12972484154191        0.94491725214993
H            4.18664529449855        1.24819026272355       -0.71732937935848
H            2.75190929181340        1.32025977064884       -1.80177225848886
H            4.16962083675064       -1.28665697836361       -0.89065255572002
H            2.73511175946905       -1.19162283976465       -1.97319642235381

          :  Hamiltonian                  GFN2-xTB          :
         :: total energy             -13.062676032628 Eh    ::
         :: gradient norm              0.000306426817 Eh/a0 ::
         :: HOMO-LUMO gap              9.968427209278 eV    ::
         :: SCC energy               -13.262881925998 Eh    ::
         :: -> dispersion             -0.004222843304 Eh    ::
         :: -> Gsolv                  -0.115783361837 Eh    ::
         :: repulsion energy           0.200202566344 Eh    ::

    * Orbital Energies and Occupations

         #    Occupation            Energy/Eh            Energy/eV
      -------------------------------------------------------------
         1        2.0000           -0.7000611             -19.0496
         2        2.0000           -0.6664593             -18.1353
         3        2.0000           -0.6217560             -16.9188
         4        2.0000           -0.5972292             -16.2514
         5        2.0000           -0.5913050             -16.0902
         6        2.0000           -0.5659812             -15.4011
         7        2.0000           -0.5493985             -14.9499
         8        2.0000           -0.5160742             -14.0431
         9        2.0000           -0.4881435             -13.2831
        10        2.0000           -0.4546451             -12.3715
        11        2.0000           -0.4425739             -12.0430
        12        2.0000           -0.4399531             -11.9717 (HOMO)
        13                         -0.0736201              -2.0033 (LUMO)
        14                         -0.0476758              -1.2973
        15                          0.0474231               1.2904
        16                          0.0971673               2.6441
        17                          0.1133426               3.0842
        18                          0.1284495               3.4953
        19                          0.1587053               4.3186
        20                          0.1764415               4.8012
        21                          0.2707876               7.3685
        22                          0.2901089               7.8943
        23                          0.3285845               8.9412
        24                          0.3451029               9.3907
      -------------------------------------------------------------
                  HL-Gap            0.3663330 Eh            9.9684 eV

     #   Z          covCN         q      C6AA      α(0)
     1   7 N        3.484    -0.165    24.548     7.359
     2   6 C        3.786     0.022    20.214     6.404
     3   6 C        3.806    -0.091    22.225     6.711
     4   6 C        3.806    -0.091    22.226     6.711
     5   1 H        0.859     0.319     0.661     1.273
     6   1 H        0.859     0.319     0.660     1.273
     7   1 H        0.859     0.309     0.687     1.298
     8   1 H        0.926     0.100     1.785     2.089
     9   1 H        0.926     0.063     2.169     2.303
    10   1 H        0.926     0.076     2.018     2.222
    11   1 H        0.926     0.063     2.170     2.303
    12   1 H        0.926     0.076     2.018     2.221

Wiberg/Mayer (AO) data.
largest (>0.10) Wiberg bond orders for each atom

     #   Z sym  total        # sym  WBO       # sym  WBO       # sym  WBO
 ---------------------------------------------------------------------------
     1   7 N    3.651 --     2 C    0.965     7 H    0.887     5 H    0.882
                             6 H    0.882
     2   6 C    3.887 --     3 C    0.976     4 C    0.976     1 N    0.965
                             8 H    0.961
     3   6 C    3.941 --     4 C    0.987     9 H    0.977     2 C    0.976
                            10 H    0.973
     4   6 C    3.941 --     3 C    0.987    11 H    0.977     2 C    0.976
                            12 H    0.973
     5   1 H    0.899 --     1 N    0.882
     6   1 H    0.898 --     1 N    0.882
     7   1 H    0.904 --     1 N    0.887
     8   1 H    0.990 --     2 C    0.961
     9   1 H    0.996 --     3 C    0.977
    10   1 H    0.994 --     3 C    0.973
    11   1 H    0.996 --     4 C    0.977
    12   1 H    0.994 --     4 C    0.973
 ---------------------------------------------------------------------------

molecular dipole:
                 x           y           z       tot (Debye)
 q only:        2.197      -0.071      -0.469
   full:        2.103      -0.071      -0.461       5.475

           -------------------------------------------------
          | TOTAL ENERGY              -13.062676032628 Eh   |
          | GRADIENT NORM               0.000306426817 Eh/α |
          | HOMO-LUMO GAP               9.968427209278 eV   |
           -------------------------------------------------

 * finished run on 2023/01/24 at 14:55:52.340
