   * xtb version 6.5.1 (fef0646) compiled by 'conda@b96dff2e9fd6' on 2023-01-04
          program call               : xtb init.xyz --opt -c 0 -u 0 -P 16 --alpb water

   ID    Z sym.   atoms
    1    7 N      1
    2    6 C      2-4
    3   17 Cl     5
    4    1 H      6-13

      * Solvation model:               ALPB
        Solvent                        water
        Solvent mass                       1.8000E+01 g/mol
          :  Hamiltonian                  GFN2-xTB          :
 * total energy  :   -17.9697251 Eh     change       -0.2539089E-09 Eh
 * total energy  :   -17.9737096 Eh     change       -0.3984558E-02 Eh
 * total energy  :   -17.9746953 Eh     change       -0.9856417E-03 Eh
 * total energy  :   -17.9751996 Eh     change       -0.5042977E-03 Eh
 * total energy  :   -17.9755140 Eh     change       -0.3144457E-03 Eh
 * total energy  :   -17.9757938 Eh     change       -0.2797770E-03 Eh
 * total energy  :   -17.9761213 Eh     change       -0.3275369E-03 Eh
 * total energy  :   -17.9762632 Eh     change       -0.1418626E-03 Eh
 * total energy  :   -17.9763233 Eh     change       -0.6011108E-04 Eh
 * total energy  :   -17.9763753 Eh     change       -0.5197112E-04 Eh
 * total energy  :   -17.9770924 Eh     change       -0.7200172E-04 Eh
 * total energy  :   -17.9771713 Eh     change       -0.7890417E-04 Eh
 * total energy  :   -17.9772445 Eh     change       -0.7319046E-04 Eh
 * total energy  :   -17.9773148 Eh     change       -0.7027625E-04 Eh
 * total energy  :   -17.9773846 Eh     change       -0.6984284E-04 Eh
 * total energy  :   -17.9774366 Eh     change       -0.5195393E-04 Eh
 * total energy  :   -17.9774503 Eh     change       -0.1376958E-04 Eh
 * total energy  :   -17.9774584 Eh     change       -0.8082944E-05 Eh
 * total energy  :   -17.9774629 Eh     change       -0.4489298E-05 Eh
   *** GEOMETRY OPTIMIZATION CONVERGED AFTER 25 ITERATIONS ***

 final structure:
================
13
 xtb: 6.5.1 (fef0646)
N            1.17673755549272        0.26697819986325       -0.27044199334813
C            2.60023207733445        0.17840929306534        0.05328447663603
C            3.53765401422834        1.13278031958267       -0.61751945457684
C            3.53511404261907       -0.31923355961329       -1.00135091464631
Cl          -0.36510658803885       -2.28970344909037        0.28358374144131
H            0.71308490983567        0.98191674656327        0.29735519346672
H            0.68222872927018       -0.64726615011887       -0.08098575625387
H            1.04282020641087        0.47986135256328       -1.26283577882179
H            2.77170062094064       -0.10757283997526        1.08025971050000
H            4.37104523595965        1.51467851698404       -0.05091863433975
H            3.13025814497797        1.84302971345413       -1.31855939883891
H            4.36188265632668       -0.94099807254942       -0.69990014558097
H            3.11796839464299       -0.59915007072924       -1.95510104563738

          :  Hamiltonian                  GFN2-xTB          :
         :: total energy             -17.977462914462 Eh    ::
         :: gradient norm              0.000769935181 Eh/a0 ::
         :: HOMO-LUMO gap              9.243325161669 eV    ::
         :: SCC energy               -18.176391251384 Eh    ::
         :: -> dispersion             -0.005804306290 Eh    ::
         :: -> Gsolv                  -0.070105723153 Eh    ::
         :: repulsion energy           0.198921839786 Eh    ::

    * Orbital Energies and Occupations

         #    Occupation            Energy/Eh            Energy/eV
      -------------------------------------------------------------
         1        2.0000           -1.0075592             -27.4171
       ...           ...                  ...                  ...
         4        2.0000           -0.6019456             -16.3798
         5        2.0000           -0.5797252             -15.7751
         6        2.0000           -0.5710543             -15.5392
         7        2.0000           -0.5507374             -14.9863
         8        2.0000           -0.5375080             -14.6263
         9        2.0000           -0.5067849             -13.7903
        10        2.0000           -0.4777447             -13.0001
        11        2.0000           -0.4477593             -12.1842
        12        2.0000           -0.4328922             -11.7796
        13        2.0000           -0.4293408             -11.6830
        14        2.0000           -0.4028367             -10.9617
        15        2.0000           -0.4012429             -10.9184
        16        2.0000           -0.4011972             -10.9171 (HOMO)
        17                         -0.0615112              -1.6738 (LUMO)
        18                         -0.0220151              -0.5991
        19                          0.0727380               1.9793
        20                          0.0962079               2.6180
        21                          0.1132193               3.0809
        22                          0.1155926               3.1454
        23                          0.1157250               3.1490
        24                          0.1181096               3.2139
        25                          0.1181146               3.2141
        26                          0.1276087               3.4724
        27                          0.1576839               4.2908
       ...                                ...                  ...
        33                          0.3535048               9.6194
      -------------------------------------------------------------
                  HL-Gap            0.3396859 Eh            9.2433 eV

     #   Z          covCN         q      C6AA      α(0)
     1   7 N        3.483    -0.169    24.640     7.372
     2   6 C        3.787     0.031    20.062     6.380
     3   6 C        3.806    -0.090    22.213     6.709
     4   6 C        3.806    -0.086    22.126     6.696
     5  17 Cl       0.065    -0.943   124.724    16.997
     6   1 H        0.859     0.305     0.699     1.310
     7   1 H        0.921     0.296     0.722     1.329
     8   1 H        0.859     0.297     0.723     1.332
     9   1 H        0.926     0.088     1.900     2.156
    10   1 H        0.926     0.068     2.107     2.270
    11   1 H        0.926     0.077     2.012     2.218
    12   1 H        0.926     0.059     2.207     2.323
    13   1 H        0.926     0.067     2.118     2.276

Wiberg/Mayer (AO) data.
largest (>0.10) Wiberg bond orders for each atom

     #   Z sym  total        # sym  WBO       # sym  WBO       # sym  WBO
 ---------------------------------------------------------------------------
     1   7 N    3.645 --     2 C    0.967     8 H    0.894     6 H    0.890
                             7 H    0.823
     2   6 C    3.895 --     4 C    0.983     3 C    0.974     1 N    0.967
                             9 H    0.962
     3   6 C    3.934 --     4 C    0.979    10 H    0.977     2 C    0.974
                            11 H    0.974
     4   6 C    3.941 --     2 C    0.983     3 C    0.979    12 H    0.978
                            13 H    0.975
     5  17 Cl   0.110
     6   1 H    0.907 --     1 N    0.890
     7   1 H    0.913 --     1 N    0.823
     8   1 H    0.912 --     1 N    0.894
     9   1 H    0.992 --     2 C    0.962
    10   1 H    0.995 --     3 C    0.977
    11   1 H    0.994 --     3 C    0.974
    12   1 H    0.996 --     4 C    0.978
    13   1 H    0.996 --     4 C    0.975
 ---------------------------------------------------------------------------

molecular dipole:
                 x           y           z       tot (Debye)
 q only:        2.992       4.601      -1.076
   full:        2.496       4.002      -0.943      12.227

           -------------------------------------------------
          | TOTAL ENERGY              -17.977462914462 Eh   |
          | GRADIENT NORM               0.000769935181 Eh/α |
          | HOMO-LUMO GAP               9.243325161669 eV   |
           -------------------------------------------------

 * finished run on 2023/01/24 at 14:55:52.157
