   * xtb version 6.5.1 (fef0646) compiled by 'conda@b96dff2e9fd6' on 2023-01-04
          program call               : xtb init.xyz --opt -c 1 -u 0 -P 16 --input xtb.inp

   ID    Z sym.   atoms
    1    7 N      1
    2    6 C      2-6
    3    1 H      7-18

          :  Hamiltonian                  GFN2-xTB          :
 * total energy  :   -19.3268630 Eh     change       -0.9089618E-10 Eh
 * total energy  :   -19.3277923 Eh     change       -0.9293423E-03 Eh
 * total energy  :   -19.3279749 Eh     change       -0.1826546E-03 Eh
 * total energy  :   -19.3280262 Eh     change       -0.5126822E-04 Eh
 * total energy  :   -19.3280598 Eh     change       -0.3360373E-04 Eh
 * total energy  :   -19.3281046 Eh     change       -0.4479968E-04 Eh
 * total energy  :   -19.3281377 Eh     change       -0.3311132E-04 Eh
 * total energy  :   -19.3281793 Eh     change       -0.4158159E-04 Eh
 * total energy  :   -19.3282288 Eh     change       -0.4945200E-04 Eh
 * total energy  :   -19.3283022 Eh     change       -0.7339452E-04 Eh
 * total energy  :   -19.3291377 Eh     change       -0.3634219E-04 Eh
 * total energy  :   -19.3291636 Eh     change       -0.2583269E-04 Eh
 * total energy  :   -19.3291515 Eh     change        0.1208161E-04 Eh
 * total energy  :   -19.3291887 Eh     change       -0.3721292E-04 Eh
 * total energy  :   -19.3292041 Eh     change       -0.1545355E-04 Eh
 * total energy  :   -19.3292209 Eh     change       -0.1678936E-04 Eh
 * total energy  :   -19.3292285 Eh     change       -0.7585342E-05 Eh
 * total energy  :   -19.3292399 Eh     change       -0.1138436E-04 Eh
 * total energy  :   -19.3292430 Eh     change       -0.3097799E-05 Eh
   *** GEOMETRY OPTIMIZATION CONVERGED AFTER 38 ITERATIONS ***

 final structure:
================
18
 xtb: 6.5.1 (fef0646)
N            1.65562049608555        0.06035702124065        0.70614676113729
C            0.84390239993435        0.09271049061215       -0.56435415545712
C           -0.01569575427446       -1.16152124595944       -0.62110006051114
C           -1.15638937147355       -0.88557660839866        0.36878963640778
C           -1.28949605598540        0.64970318635871        0.43997792508725
C           -0.17786175166001        1.21554988237293       -0.45906076342911
H            2.29858823214947       -0.74029456108512        0.71537688812437
H            0.99220476969921       -0.03500671481123        1.48699901740552
H            2.19216620659485        0.92729522315802        0.82775469068346
H            1.53320069648325        0.19773998974217       -1.40261745408439
H            0.53594944631749       -2.07138069981435       -0.38969450340108
H           -0.41000152149046       -1.26488182405549       -1.63052814322917
H           -0.93651506291832       -1.30938203692732        1.35007798186886
H           -2.07948039810625       -1.34880444539528        0.03127759889351
H           -1.18968188668052        1.00759768292338        1.46540574608842
H           -2.26506956680821        0.97698066440878        0.09024650510496
H            0.24498715092505        2.14254032306054       -0.07516888540727
H           -0.56678802879202        1.42290367256955       -1.45427878528212

          :  Hamiltonian                  GFN2-xTB          :
         :: total energy             -19.329242992557 Eh    ::
         :: gradient norm              0.000445679480 Eh/a0 ::
         :: HOMO-LUMO gap              8.493693386378 eV    ::
         :: SCC energy               -19.605111023616 Eh    ::
         :: -> dispersion             -0.009807755531 Eh    ::
         :: repulsion energy           0.275838092909 Eh    ::

    * Orbital Energies and Occupations

         #    Occupation            Energy/Eh            Energy/eV
      -------------------------------------------------------------
         1        2.0000           -0.8872737             -24.1439
       ...           ...                  ...                  ...
         6        2.0000           -0.7625239             -20.7493
         7        2.0000           -0.7534869             -20.5034
         8        2.0000           -0.7117819             -19.3686
         9        2.0000           -0.7116437             -19.3648
        10        2.0000           -0.6905113             -18.7898
        11        2.0000           -0.6694315             -18.2162
        12        2.0000           -0.6484118             -17.6442
        13        2.0000           -0.6228757             -16.9493
        14        2.0000           -0.6211050             -16.9011
        15        2.0000           -0.6079301             -16.5426
        16        2.0000           -0.6018005             -16.3758
        17        2.0000           -0.6013548             -16.3637
        18        2.0000           -0.5684507             -15.4683 (HOMO)
        19                         -0.2563132              -6.9746 (LUMO)
        20                         -0.1657989              -4.5116
        21                         -0.1243586              -3.3840
        22                         -0.1133958              -3.0857
        23                         -0.0762560              -2.0750
        24                         -0.0735975              -2.0027
        25                         -0.0536443              -1.4597
        26                         -0.0348554              -0.9485
        27                         -0.0142274              -0.3871
        28                         -0.0123224              -0.3353
        29                          0.0126107               0.3432
       ...                                ...                  ...
        36                          0.1953353               5.3153
      -------------------------------------------------------------
                  HL-Gap            0.3121375 Eh            8.4937 eV

     #   Z          covCN         q      C6AA      α(0)
     1   7 N        3.485    -0.141    24.050     7.284
     2   6 C        3.804     0.024    20.174     6.394
     3   6 C        3.828    -0.085    22.101     6.689
     4   6 C        3.818    -0.077    21.950     6.668
     5   6 C        3.817    -0.077    21.961     6.670
     6   6 C        3.827    -0.085    22.108     6.690
     7   1 H        0.859     0.265     0.829     1.427
     8   1 H        0.859     0.281     0.772     1.377
     9   1 H        0.859     0.265     0.829     1.426
    10   1 H        0.924     0.089     1.888     2.149
    11   1 H        0.925     0.061     2.188     2.313
    12   1 H        0.925     0.092     1.864     2.135
    13   1 H        0.924     0.042     2.416     2.431
    14   1 H        0.925     0.076     2.022     2.224
    15   1 H        0.924     0.045     2.379     2.412
    16   1 H        0.925     0.075     2.029     2.228
    17   1 H        0.925     0.061     2.190     2.314
    18   1 H        0.925     0.091     1.871     2.139

Wiberg/Mayer (AO) data.
largest (>0.10) Wiberg bond orders for each atom

     #   Z sym  total        # sym  WBO       # sym  WBO       # sym  WBO
 ---------------------------------------------------------------------------
     1   7 N    3.667 --     9 H    0.914     7 H    0.914     8 H    0.898
                             2 C    0.896
     2   6 C    3.894 --     6 C    1.000     3 C    1.000    10 H    0.962
                             1 N    0.896
     3   6 C    3.982 --     4 C    1.003     2 C    1.000    11 H    0.973
                            12 H    0.966
     4   6 C    3.991 --     3 C    1.003     5 C    1.002    13 H    0.979
                            14 H    0.977
     5   6 C    3.990 --     6 C    1.002     4 C    1.002    15 H    0.981
                            16 H    0.978
     6   6 C    3.982 --     5 C    1.002     2 C    1.000    17 H    0.973
                            18 H    0.966
     7   1 H    0.930 --     1 N    0.914
     8   1 H    0.921 --     1 N    0.898
     9   1 H    0.930 --     1 N    0.914
    10   1 H    0.992 --     2 C    0.962
    11   1 H    0.996 --     3 C    0.973
    12   1 H    0.992 --     3 C    0.966
    13   1 H    0.998 --     4 C    0.979
    14   1 H    0.994 --     4 C    0.977
    15   1 H    0.998 --     5 C    0.981
    16   1 H    0.994 --     5 C    0.978
    17   1 H    0.996 --     6 C    0.973
    18   1 H    0.992 --     6 C    0.966
 ---------------------------------------------------------------------------

molecular dipole:
                 x           y           z       tot (Debye)
 q only:        2.137       0.080       0.834
   full:        2.394       0.086       0.993       6.593

           -------------------------------------------------
          | TOTAL ENERGY              -19.329242992557 Eh   |
          | GRADIENT NORM               0.000445679480 Eh/α |
          | HOMO-LUMO GAP               8.493693386378 eV   |
           -------------------------------------------------

 * finished run on 2023/01/23 at 18:43:23.979
