   * xtb version 6.5.1 (fef0646) compiled by 'conda@b96dff2e9fd6' on 2023-01-04
          program call               : xtb init.xyz --opt -c 0 -u 0 -P 16 --input xtb.inp

   ID    Z sym.   atoms
    1    7 N      1
    2    6 C      2-11
    3   16 S      12, 13
    4   17 Cl     14
    5    1 H      15-26

          :  Hamiltonian                  GFN2-xTB          :
 * total energy  :   -41.4447320 Eh     change       -0.5286509E-09 Eh
 * total energy  :   -41.4538153 Eh     change       -0.9083269E-02 Eh
 * total energy  :   -41.4592109 Eh     change       -0.5395547E-02 Eh
 * total energy  :   -41.4622531 Eh     change       -0.3042251E-02 Eh
 * total energy  :   -41.4655880 Eh     change       -0.3334843E-02 Eh
 * total energy  :   -41.4677574 Eh     change       -0.2169409E-02 Eh
 * total energy  :   -41.4685925 Eh     change       -0.8351210E-03 Eh
 * total energy  :   -41.4691693 Eh     change       -0.5768199E-03 Eh
 * total energy  :   -41.4693505 Eh     change       -0.1811897E-03 Eh
 * total energy  :   -41.4695313 Eh     change       -0.1807819E-03 Eh
 * total energy  :   -41.4708858 Eh     change       -0.1288486E-04 Eh
 * total energy  :   -41.4708955 Eh     change       -0.9708733E-05 Eh
 * total energy  :   -41.4709036 Eh     change       -0.8054341E-05 Eh
 * total energy  :   -41.4709116 Eh     change       -0.8051841E-05 Eh
 * total energy  :   -41.4709213 Eh     change       -0.9634381E-05 Eh
 * total energy  :   -41.4709320 Eh     change       -0.1071609E-04 Eh
 * total energy  :   -41.4709430 Eh     change       -0.1101733E-04 Eh
 * total energy  :   -41.4709536 Eh     change       -0.1061363E-04 Eh
 * total energy  :   -41.4709566 Eh     change       -0.2933269E-05 Eh
   *** GEOMETRY OPTIMIZATION CONVERGED AFTER 44 ITERATIONS ***

 final structure:
================
26
 xtb: 6.5.1 (fef0646)
N            0.98051190125376        0.34124395828557       -0.27352967145906
C            2.43529429001126        0.35337465656543       -0.21302895825769
C            3.04978736662412        1.75891593601393       -0.35613828392094
C            4.53501003756352        1.70442560815081       -0.27296625980606
C            5.32667301616250        1.88071119167052        0.82103842970305
C            6.69747018050618        1.71379844399009        0.55266318462138
C            6.95812914362660        1.40074738441669       -0.75450824500018
C            8.22213601564483        1.17368830206646       -1.37866198874119
C            8.48378550770739        0.86066613939763       -2.68682422953466
C            9.85774424088856        0.71598720016293       -2.95616587610408
C           10.63201785851354        0.91779021660476       -1.85865443333413
S            9.69966466369295        1.29063688021190       -0.46368995216251
S            5.48066583531728        1.30845103751444       -1.67243487605185
Cl          -0.06756687142734       -2.38610949789839        0.16666298977060
H            0.42004194145851       -1.14075458520583       -0.04421516066473
H            0.65242507271415        0.67767015501262       -1.17286792572945
H            0.58402341053967        0.92818412164802        0.45326015693551
H            2.81053106919307       -0.29090266061230       -1.01088686346093
H            2.73473479761137       -0.07869267420754        0.74435180512776
H            2.67032059901017        2.40130304276336        0.44329013378552
H            2.74746559145247        2.18441101794877       -1.31674861213077
H            4.93985135580761        2.13239251061566        1.79267375000058
H            7.47348459703690        1.82045031174069        1.28960041660146
H            7.70844812427215        0.74104444961505       -3.42270607403508
H           10.25270562954507        0.47231393848501       -3.92611043425562
H           11.69951462527335        0.87182291504149       -1.77607302189279

          :  Hamiltonian                  GFN2-xTB          :
         :: total energy             -41.470956554551 Eh    ::
         :: gradient norm              0.000293376315 Eh/a0 ::
         :: HOMO-LUMO gap              2.597425329689 eV    ::
         :: SCC energy               -42.008828561151 Eh    ::
         :: -> dispersion             -0.026482779405 Eh    ::
         :: repulsion energy           0.538058320490 Eh    ::

    * Orbital Energies and Occupations

         #    Occupation            Energy/Eh            Energy/eV
      -------------------------------------------------------------
         1        2.0000           -1.0216951             -27.8017
       ...           ...                  ...                  ...
        26        2.0000           -0.4719018             -12.8411
        27        2.0000           -0.4695471             -12.7770
        28        2.0000           -0.4623207             -12.5804
        29        2.0000           -0.4566934             -12.4273
        30        2.0000           -0.4538448             -12.3497
        31        2.0000           -0.4490535             -12.2194
        32        2.0000           -0.4258854             -11.5889
        33        2.0000           -0.4072031             -11.0806
        34        2.0000           -0.4032818             -10.9739
        35        2.0000           -0.4013817             -10.9222
        36        2.0000           -0.3986904             -10.8489
        37        2.0000           -0.3986749             -10.8485
        38        2.0000           -0.3716351             -10.1127 (HOMO)
        39                         -0.2761815              -7.5153 (LUMO)
        40                         -0.2240796              -6.0975
        41                         -0.2173805              -5.9152
        42                         -0.2033392              -5.5331
        43                         -0.1805682              -4.9135
        44                         -0.1522136              -4.1419
        45                         -0.1408129              -3.8317
        46                         -0.1076316              -2.9288
        47                         -0.0605448              -1.6475
        48                         -0.0182405              -0.4964
        49                         -0.0000993              -0.0027
       ...                                ...                  ...
        83                          0.6993207              19.0295
      -------------------------------------------------------------
                  HL-Gap            0.0954536 Eh            2.5974 eV

     #   Z          covCN         q      C6AA      α(0)
     1   7 N        2.663    -0.310    27.975     7.855
     2   6 C        3.733     0.003    20.615     6.480
     3   6 C        3.825    -0.068    21.780     6.641
     4   6 C        2.988     0.017    27.619     8.621
     5   6 C        3.109    -0.054    29.188     8.851
     6   6 C        3.107    -0.052    29.146     8.845
     7   6 C        3.022     0.019    27.551     8.610
     8   6 C        3.023     0.019    27.549     8.610
     9   6 C        3.111    -0.051    29.099     8.837
    10   6 C        3.108    -0.042    28.885     8.805
    11   6 C        2.941    -0.019    28.489     8.754
    12  16 S        2.329    -0.032   142.364    20.082
    13  16 S        2.353    -0.050   143.120    20.135
    14  17 Cl       0.840    -0.464   114.364    16.360
    15   1 H        0.873     0.332     0.624     1.237
    16   1 H        0.860     0.167     1.290     1.779
    17   1 H        0.860     0.166     1.295     1.783
    18   1 H        0.924     0.059     2.208     2.324
    19   1 H        0.924     0.057     2.236     2.338
    20   1 H        0.924     0.045     2.386     2.415
    21   1 H        0.924     0.047     2.356     2.400
    22   1 H        0.926     0.037     2.483     2.464
    23   1 H        0.926     0.044     2.398     2.421
    24   1 H        0.926     0.042     2.421     2.433
    25   1 H        0.926     0.039     2.460     2.453
    26   1 H        0.926     0.045     2.377     2.411

Wiberg/Mayer (AO) data.
largest (>0.10) Wiberg bond orders for each atom

     #   Z sym  total        # sym  WBO       # sym  WBO       # sym  WBO
 ---------------------------------------------------------------------------
     1   7 N    3.219 --     2 C    1.015    16 H    0.958    17 H    0.958
                            15 H    0.177
     2   6 C    3.971 --     1 N    1.015     3 C    0.975    19 H    0.974
                            18 H    0.974
     3   6 C    3.996 --     4 C    1.026     2 C    0.975    21 H    0.970
                            20 H    0.969
     4   6 C    3.934 --     5 C    1.578    13 S    1.155     3 C    1.026
     5   6 C    3.985 --     4 C    1.578     6 C    1.295    22 H    0.964
     6   6 C    3.986 --     7 C    1.518     5 C    1.295    23 H    0.961
     7   6 C    3.950 --     6 C    1.518     8 C    1.152    13 S    1.119
     8   6 C    3.952 --     9 C    1.516     7 C    1.152    12 S    1.127
                            11 C    0.101
     9   6 C    3.984 --     8 C    1.516    10 C    1.296    24 H    0.962
    10   6 C    3.988 --    11 C    1.608     9 C    1.296    25 H    0.965
    11   6 C    3.933 --    10 C    1.608    12 S    1.192    26 H    0.970
                             8 C    0.101
    12  16 S    2.605 --    11 C    1.192     8 C    1.127
    13  16 S    2.574 --     4 C    1.155     7 C    1.119
    14  17 Cl   0.786 --    15 H    0.710
    15   1 H    0.890 --    14 Cl   0.710     1 N    0.177
    16   1 H    0.972 --     1 N    0.958
    17   1 H    0.972 --     1 N    0.958
    18   1 H    0.996 --     2 C    0.974
    19   1 H    0.997 --     2 C    0.974
    20   1 H    0.997 --     3 C    0.969
    21   1 H    0.997 --     3 C    0.970
    22   1 H    0.998 --     5 C    0.964
    23   1 H    0.998 --     6 C    0.961
    24   1 H    0.998 --     9 C    0.962
    25   1 H    0.998 --    10 C    0.965
    26   1 H    0.997 --    11 C    0.970
 ---------------------------------------------------------------------------

molecular dipole:
                 x           y           z       tot (Debye)
 q only:        0.614       1.701      -0.274
   full:        0.554       1.655      -0.265       4.487

           -------------------------------------------------
          | TOTAL ENERGY              -41.470956554551 Eh   |
          | GRADIENT NORM               0.000293376315 Eh/α |
          | HOMO-LUMO GAP               2.597425329689 eV   |
           -------------------------------------------------

 * finished run on 2023/01/23 at 19:35:03.526
