   * xtb version 6.5.1 (fef0646) compiled by 'conda@b96dff2e9fd6' on 2023-01-04
          program call               : xtb init.xyz --opt -c 0 -u 0 -P 16

   ID    Z sym.   atoms
    1    7 N      1
    2    6 C      2-12
    3   17 Cl     13
    4    1 H      14-25

          :  Hamiltonian                  GFN2-xTB          :
 * total energy  :   -37.1042221 Eh     change       -0.1070447E-08 Eh
 * total energy  :   -37.1130127 Eh     change       -0.8790621E-02 Eh
 * total energy  :   -37.1190094 Eh     change       -0.5996688E-02 Eh
 * total energy  :   -37.1223478 Eh     change       -0.3338409E-02 Eh
 * total energy  :   -37.1257153 Eh     change       -0.3367533E-02 Eh
 * total energy  :   -37.1276376 Eh     change       -0.1922298E-02 Eh
 * total energy  :   -37.1290683 Eh     change       -0.1430617E-02 Eh
 * total energy  :   -37.1297334 Eh     change       -0.6651925E-03 Eh
 * total energy  :   -37.1303423 Eh     change       -0.6088827E-03 Eh
 * total energy  :   -37.1304513 Eh     change       -0.1090160E-03 Eh
 * total energy  :   -37.1307460 Eh     change       -0.1415213E-04 Eh
 * total energy  :   -37.1307519 Eh     change       -0.5939819E-05 Eh
 * total energy  :   -37.1307619 Eh     change       -0.9994585E-05 Eh
 * total energy  :   -37.1307738 Eh     change       -0.1182247E-04 Eh
 * total energy  :   -37.1307875 Eh     change       -0.1378491E-04 Eh
 * total energy  :   -37.1308106 Eh     change       -0.2304747E-04 Eh
 * total energy  :   -37.1308299 Eh     change       -0.1928869E-04 Eh
 * total energy  :   -37.1308415 Eh     change       -0.1163527E-04 Eh
 * total energy  :   -37.1308443 Eh     change       -0.2773278E-05 Eh
   *** GEOMETRY OPTIMIZATION CONVERGED AFTER 24 ITERATIONS ***

 final structure:
================
25
 xtb: 6.5.1 (fef0646)
N            1.23669816518104       -0.34190127049753        0.09650196203164
C            2.68589876840521       -0.10718319553566        0.09214159073995
C            3.16012672505736        0.00520636006064       -1.33191391400856
C            3.45388319226113       -1.16673736239446       -2.05540649999442
C            3.83885110005908       -1.10306560361567       -3.36394043888182
C            3.26038178572705        1.22281058065368       -1.95090527050244
C            3.65548396140121        1.32383336670012       -3.29958210206416
C            3.94997198470788        0.13845598741467       -4.02304588471100
C            4.34192874369992        0.24111611555659       -5.37373058807762
C            4.43624516872548        1.46160171370367       -5.98141381073208
C            4.14255053667949        2.63419206324912       -5.26709754690737
C            3.76183199461807        2.56764878241583       -3.95634027105884
Cl          -0.15712861542076        1.89450986643539       -1.19309075974742
H            0.88168353396282       -0.44301590838800        1.04107192610410
H            1.01106619814222       -1.17689645846418       -0.43464833823184
H            0.50611658828907        0.85730025515291       -0.59900856067926
H            3.23152611702646       -0.91368796381618        0.60371673042643
H            2.86743114641964        0.82786009285050        0.62656510667406
H            3.37611107178960       -2.12533935128336       -1.56024895464033
H            4.06287966162778       -2.00630040051974       -3.91359071460749
H            3.02668008845899        2.12689702670177       -1.40887094011682
H            4.56482989362016       -0.66445915562120       -5.92031681567347
H            4.73595608372182        1.53320150354857       -7.01688434186499
H            4.21975163917431        3.58969951173191       -5.76504385050657
H            3.53108446666548        3.46651344396054       -3.40314771296966

          :  Hamiltonian                  GFN2-xTB          :
         :: total energy             -37.130844289214 Eh    ::
         :: gradient norm              0.000720906609 Eh/a0 ::
         :: HOMO-LUMO gap              3.225274928162 eV    ::
         :: SCC energy               -37.717088619582 Eh    ::
         :: -> dispersion             -0.024592229257 Eh    ::
         :: repulsion energy           0.586096211048 Eh    ::

    * Orbital Energies and Occupations

         #    Occupation            Energy/Eh            Energy/eV
      -------------------------------------------------------------
         1        2.0000           -1.0154568             -27.6320
       ...           ...                  ...                  ...
        22        2.0000           -0.4732376             -12.8775
        23        2.0000           -0.4677640             -12.7285
        24        2.0000           -0.4647940             -12.6477
        25        2.0000           -0.4529895             -12.3265
        26        2.0000           -0.4422977             -12.0355
        27        2.0000           -0.4271268             -11.6227
        28        2.0000           -0.4213818             -11.4664
        29        2.0000           -0.4156947             -11.3116
        30        2.0000           -0.4025175             -10.9531
        31        2.0000           -0.3973135             -10.8115
        32        2.0000           -0.3926287             -10.6840
        33        2.0000           -0.3924751             -10.6798
        34        2.0000           -0.3801220             -10.3436 (HOMO)
        35                         -0.2615953              -7.1184 (LUMO)
        36                         -0.2317952              -6.3075
        37                         -0.1901887              -5.1753
        38                         -0.1504576              -4.0942
        39                         -0.0613073              -1.6683
        40                         -0.0500614              -1.3622
        41                          0.0330311               0.8988
        42                          0.0684517               1.8627
        43                          0.0687003               1.8694
        44                          0.0743604               2.0235
        45                          0.0745117               2.0276
       ...                                ...                  ...
        69                          0.6958555              18.9352
      -------------------------------------------------------------
                  HL-Gap            0.1185267 Eh            3.2253 eV

     #   Z          covCN         q      C6AA      α(0)
     1   7 N        2.690    -0.305    27.858     7.839
     2   6 C        3.737     0.005    20.579     6.473
     3   6 C        2.968     0.002    27.985     8.677
     4   6 C        2.920    -0.039    28.964     8.825
     5   6 C        2.917    -0.036    28.891     8.814
     6   6 C        2.923    -0.037    28.915     8.818
     7   6 C        2.987     0.017    27.620     8.621
     8   6 C        2.988     0.013    27.717     8.636
     9   6 C        2.918    -0.035    28.859     8.809
    10   6 C        2.916    -0.029    28.718     8.788
    11   6 C        2.916    -0.028    28.712     8.787
    12   6 C        2.918    -0.032    28.789     8.799
    13  17 Cl       0.838    -0.481   114.995    16.405
    14   1 H        0.860     0.165     1.302     1.787
    15   1 H        0.860     0.167     1.289     1.779
    16   1 H        0.895     0.331     0.625     1.237
    17   1 H        0.923     0.028     2.621     2.532
    18   1 H        0.924     0.053     2.278     2.360
    19   1 H        0.925     0.026     2.648     2.545
    20   1 H        0.926     0.033     2.542     2.493
    21   1 H        0.926     0.049     2.335     2.390
    22   1 H        0.926     0.031     2.569     2.506
    23   1 H        0.926     0.031     2.570     2.507
    24   1 H        0.926     0.032     2.553     2.499
    25   1 H        0.926     0.038     2.481     2.463

Wiberg/Mayer (AO) data.
largest (>0.10) Wiberg bond orders for each atom

     #   Z sym  total        # sym  WBO       # sym  WBO       # sym  WBO
 ---------------------------------------------------------------------------
     1   7 N    3.230 --     2 C    0.994    14 H    0.958    15 H    0.958
                            16 H    0.201
     2   6 C    3.973 --     3 C    1.003     1 N    0.994    18 H    0.973
                            17 H    0.969
     3   6 C    3.987 --     6 C    1.528     4 C    1.300     2 C    1.003
     4   6 C    3.992 --     5 C    1.560     3 C    1.300    19 H    0.969
     5   6 C    3.992 --     4 C    1.560     8 C    1.278    20 H    0.968
                             6 C    0.116
     6   6 C    3.990 --     3 C    1.528     7 C    1.283    21 H    0.965
                             5 C    0.116
     7   6 C    3.991 --     6 C    1.283    12 C    1.278     8 C    1.251
     8   6 C    3.991 --     9 C    1.281     5 C    1.278     7 C    1.251
     9   6 C    3.992 --    10 C    1.557     8 C    1.281    22 H    0.968
                            12 C    0.118
    10   6 C    3.991 --     9 C    1.557    11 C    1.320    23 H    0.971
    11   6 C    3.992 --    12 C    1.559    10 C    1.320    24 H    0.971
    12   6 C    3.990 --    11 C    1.559     7 C    1.278    25 H    0.968
                             9 C    0.118
    13  17 Cl   0.771 --    16 H    0.685
    14   1 H    0.972 --     1 N    0.958
    15   1 H    0.972 --     1 N    0.958
    16   1 H    0.890 --    13 Cl   0.685     1 N    0.201
    17   1 H    0.998 --     2 C    0.969
    18   1 H    0.997 --     2 C    0.973
    19   1 H    0.999 --     4 C    0.969
    20   1 H    0.998 --     5 C    0.968
    21   1 H    0.997 --     6 C    0.965
    22   1 H    0.999 --     9 C    0.968
    23   1 H    0.999 --    10 C    0.971
    24   1 H    0.998 --    11 C    0.971
    25   1 H    0.998 --    12 C    0.968
 ---------------------------------------------------------------------------

molecular dipole:
                 x           y           z       tot (Debye)
 q only:        1.092      -1.250       0.629
   full:        0.923      -1.299       0.623       4.350

           -------------------------------------------------
          | TOTAL ENERGY              -37.130844289214 Eh   |
          | GRADIENT NORM               0.000720906609 Eh/α |
          | HOMO-LUMO GAP               3.225274928162 eV   |
           -------------------------------------------------

 * finished run on 2023/01/23 at 13:43:44.913
