   * xtb version 6.5.1 (fef0646) compiled by 'conda@b96dff2e9fd6' on 2023-01-04
          program call               : xtb init.xyz --opt -c 1 -u 0 -P 16

   ID    Z sym.   atoms
    1    7 N      1
    2    6 C      2-13
    3    1 H      14-27

          :  Hamiltonian                  GFN2-xTB          :
 * total energy  :   -35.3195260 Eh     change       -0.2998704E-09 Eh
 * total energy  :   -35.3237192 Eh     change       -0.4193215E-02 Eh
 * total energy  :   -35.3245374 Eh     change       -0.8182464E-03 Eh
 * total energy  :   -35.3246406 Eh     change       -0.1031392E-03 Eh
 * total energy  :   -35.3246946 Eh     change       -0.5406322E-04 Eh
 * total energy  :   -35.3247123 Eh     change       -0.1770101E-04 Eh
 * total energy  :   -35.3247330 Eh     change       -0.2063266E-04 Eh
 * total energy  :   -35.3247480 Eh     change       -0.1501773E-04 Eh
 * total energy  :   -35.3247584 Eh     change       -0.1038884E-04 Eh
 * total energy  :   -35.3247664 Eh     change       -0.8037348E-05 Eh
 * total energy  :   -35.3247698 Eh     change       -0.3331013E-05 Eh
   *** GEOMETRY OPTIMIZATION CONVERGED AFTER 11 ITERATIONS ***

 final structure:
================
27
 xtb: 6.5.1 (fef0646)
N            1.66965609470651        0.73774254929645       -1.13536628983378
C            2.41697681381720       -0.04052566177418       -0.06401106346516
C            3.59515254281205        0.79799325006282        0.39980026547359
C            2.81778162553135       -1.37197593881347       -0.64630196907172
C            2.33853956000214       -2.55814791301954       -0.05874137259488
C            2.69440708825045       -3.77501304338264       -0.56838352560817
C            3.64024468812036       -1.43927102496445       -1.74522415164700
C            4.02180691329327       -2.67823752437763       -2.29394799021338
C            3.53940911983158       -3.87296008516661       -1.69244870228278
C            3.92641952815999       -5.11512311673858       -2.23609499468847
C            4.75440525648440       -5.17011827796278       -3.32267382091819
C            5.23081671252873       -3.98933436834300       -3.91627971398211
C            4.87225599977889       -2.76911119689732       -3.41607505715829
H            0.80722830019753        0.24834012065828       -1.40201930403314
H            2.27686922899325        0.79864905063151       -1.96448655418042
H            1.44161900041316        1.68637230416802       -0.81326319830087
H            1.72052390779307       -0.19249545574184        0.76496032883453
H            4.29501461788743        0.98392681407646       -0.41034980492095
H            4.12975888083703        0.25926772599435        1.17707548730327
H            3.26712509635235        1.74722261843689        0.81741433603540
H            1.69607478146709       -2.49736530408980        0.80675270394431
H            2.33011757518369       -4.68212020903467       -0.11131053516630
H            4.03445898626997       -0.54381878319761       -2.21059192622518
H            3.55858819377323       -6.01991014350512       -1.77638059626584
H            5.04887656376734       -6.12302773114905       -3.73387054881117
H            5.88469834151431       -4.05404212598756       -4.77213527742939
H            5.24086458223370       -1.86007652917878       -3.86897672479396

          :  Hamiltonian                  GFN2-xTB          :
         :: total energy             -35.324769754669 Eh    ::
         :: gradient norm              0.000494915510 Eh/a0 ::
         :: HOMO-LUMO gap              3.082834134201 eV    ::
         :: SCC energy               -35.966470202120 Eh    ::
         :: -> dispersion             -0.023986908507 Eh    ::
         :: repulsion energy           0.641622595221 Eh    ::

    * Orbital Energies and Occupations

         #    Occupation            Energy/Eh            Energy/eV
      -------------------------------------------------------------
         1        2.0000           -0.8773197             -23.8731
       ...           ...                  ...                  ...
        21        2.0000           -0.6098230             -16.5941
        22        2.0000           -0.6078285             -16.5399
        23        2.0000           -0.6026204             -16.3981
        24        2.0000           -0.5884225             -16.0118
        25        2.0000           -0.5819001             -15.8343
        26        2.0000           -0.5772474             -15.7077
        27        2.0000           -0.5680810             -15.4583
        28        2.0000           -0.5571645             -15.1612
        29        2.0000           -0.5430949             -14.7784
        30        2.0000           -0.5284848             -14.3808
        31        2.0000           -0.5239810             -14.2582
        32        2.0000           -0.5150230             -14.0145
        33        2.0000           -0.4927355             -13.4080 (HOMO)
        34                         -0.3794434             -10.3252 (LUMO)
        35                         -0.3494876              -9.5100
        36                         -0.3037703              -8.2660
        37                         -0.2713960              -7.3851
        38                         -0.2367694              -6.4428
        39                         -0.1732214              -4.7136
        40                         -0.1500889              -4.0841
        41                         -0.0925279              -2.5178
        42                         -0.0811203              -2.2074
        43                         -0.0594397              -1.6174
        44                         -0.0187185              -0.5094
       ...                                ...                  ...
        66                          0.5860557              15.9474
      -------------------------------------------------------------
                  HL-Gap            0.1132921 Eh            3.0828 eV

     #   Z          covCN         q      C6AA      α(0)
     1   7 N        3.483    -0.143    24.091     7.290
     2   6 C        3.784     0.024    20.186     6.400
     3   6 C        3.755    -0.137    23.199     6.868
     4   6 C        2.969    -0.021    28.537     8.762
     5   6 C        2.918    -0.044    29.089     8.844
     6   6 C        2.918    -0.026    28.646     8.777
     7   6 C        2.921    -0.049    29.218     8.864
     8   6 C        2.986     0.017    27.632     8.623
     9   6 C        2.987     0.020    27.547     8.609
    10   6 C        2.917    -0.028    28.708     8.786
    11   6 C        2.916    -0.017    28.439     8.745
    12   6 C        2.916    -0.018    28.462     8.748
    13   6 C        2.917    -0.033    28.834     8.806
    14   1 H        0.859     0.263     0.836     1.433
    15   1 H        0.859     0.269     0.812     1.412
    16   1 H        0.859     0.264     0.832     1.429
    17   1 H        0.924     0.090     1.878     2.143
    18   1 H        0.925     0.072     2.065     2.247
    19   1 H        0.925     0.096     1.819     2.109
    20   1 H        0.925     0.066     2.133     2.284
    21   1 H        0.926     0.042     2.424     2.435
    22   1 H        0.926     0.060     2.201     2.320
    23   1 H        0.925     0.027     2.630     2.536
    24   1 H        0.926     0.054     2.273     2.358
    25   1 H        0.926     0.058     2.227     2.334
    26   1 H        0.926     0.055     2.253     2.347
    27   1 H        0.926     0.042     2.427     2.436

Wiberg/Mayer (AO) data.
largest (>0.10) Wiberg bond orders for each atom

     #   Z sym  total        # sym  WBO       # sym  WBO       # sym  WBO
 ---------------------------------------------------------------------------
     1   7 N    3.664 --    14 H    0.916    16 H    0.913    15 H    0.903
                             2 C    0.878
     2   6 C    3.887 --     3 C    1.010     4 C    0.991    17 H    0.960
                             1 N    0.878
     3   6 C    3.978 --     2 C    1.010    20 H    0.979    18 H    0.978
                            19 H    0.970
     4   6 C    3.972 --     7 C    1.506     5 C    1.299     2 C    0.991
     5   6 C    3.990 --     6 C    1.551     4 C    1.299    21 H    0.967
     6   6 C    3.989 --     5 C    1.551     9 C    1.285    22 H    0.966
                             7 C    0.112
     7   6 C    3.991 --     4 C    1.506     8 C    1.293    23 H    0.960
                             6 C    0.112
     8   6 C    3.991 --     7 C    1.293    13 C    1.276     9 C    1.240
     9   6 C    3.990 --     6 C    1.285    10 C    1.281     8 C    1.240
    10   6 C    3.990 --    11 C    1.557     9 C    1.281    24 H    0.967
                            13 C    0.117
    11   6 C    3.987 --    10 C    1.557    12 C    1.317    25 H    0.969
    12   6 C    3.990 --    13 C    1.559    11 C    1.317    26 H    0.969
    13   6 C    3.990 --    12 C    1.559     8 C    1.276    27 H    0.968
                            10 C    0.117
    14   1 H    0.931 --     1 N    0.916
    15   1 H    0.927 --     1 N    0.903
    16   1 H    0.930 --     1 N    0.913
    17   1 H    0.992 --     2 C    0.960
    18   1 H    0.995 --     3 C    0.978
    19   1 H    0.991 --     3 C    0.970
    20   1 H    0.995 --     3 C    0.979
    21   1 H    0.998 --     5 C    0.967
    22   1 H    0.996 --     6 C    0.966
    23   1 H    0.999 --     7 C    0.960
    24   1 H    0.997 --    10 C    0.967
    25   1 H    0.996 --    11 C    0.969
    26   1 H    0.996 --    12 C    0.969
    27   1 H    0.998 --    13 C    0.968
 ---------------------------------------------------------------------------

molecular dipole:
                 x           y           z       tot (Debye)
 q only:        4.213      -0.171      -2.301
   full:        4.060       0.018      -2.405      11.994

           -------------------------------------------------
          | TOTAL ENERGY              -35.324769754669 Eh   |
          | GRADIENT NORM               0.000494915510 Eh/α |
          | HOMO-LUMO GAP               3.082834134201 eV   |
           -------------------------------------------------

 * finished run on 2023/01/23 at 14:30:22.486
