   * xtb version 6.5.1 (fef0646) compiled by 'conda@b96dff2e9fd6' on 2023-01-04
          program call               : xtb init.xyz --opt -c 0 -u 0 -P 16 --input xtb.inp

   ID    Z sym.   atoms
    1    7 N      1
    2    6 C      2-10
    3   17 Cl     11
    4    1 H      12-23

          :  Hamiltonian                  GFN2-xTB          :
 * total energy  :   -32.7949129 Eh     change       -0.1153353E-09 Eh
 * total energy  :   -32.8022853 Eh     change       -0.7372375E-02 Eh
 * total energy  :   -32.8064779 Eh     change       -0.4192620E-02 Eh
 * total energy  :   -32.8092043 Eh     change       -0.2726432E-02 Eh
 * total energy  :   -32.8123103 Eh     change       -0.3106020E-02 Eh
 * total energy  :   -32.8140929 Eh     change       -0.1782576E-02 Eh
 * total energy  :   -32.8145182 Eh     change       -0.4252978E-03 Eh
 * total energy  :   -32.8148387 Eh     change       -0.3205231E-03 Eh
 * total energy  :   -32.8149346 Eh     change       -0.9581450E-04 Eh
 * total energy  :   -32.8150030 Eh     change       -0.6842299E-04 Eh
 * total energy  :   -32.8157118 Eh     change       -0.2350596E-04 Eh
 * total energy  :   -32.8156998 Eh     change        0.1201314E-04 Eh
 * total energy  :   -32.8157314 Eh     change       -0.3167929E-04 Eh
 * total energy  :   -32.8157368 Eh     change       -0.5355471E-05 Eh
 * total energy  :   -32.8157512 Eh     change       -0.1439397E-04 Eh
 * total energy  :   -32.8157607 Eh     change       -0.9502598E-05 Eh
 * total energy  :   -32.8157671 Eh     change       -0.6454772E-05 Eh
 * total energy  :   -32.8157738 Eh     change       -0.6645377E-05 Eh
 * total energy  :   -32.8157765 Eh     change       -0.2705051E-05 Eh
   *** GEOMETRY OPTIMIZATION CONVERGED AFTER 26 ITERATIONS ***

 final structure:
================
23
 xtb: 6.5.1 (fef0646)
N            2.04724854479639       -0.92352357561822       -0.80224182050754
C            2.68243851185099        0.20113779318680       -0.10665038669988
C            3.12434774270582       -0.23775199123512        1.25322853763106
C            4.34834595696292       -0.04265097917049        1.73704649933485
C            4.83631986548118       -0.43566434899452        3.05210119588621
C            4.06588130361840       -1.16092610997573        3.96280363024545
C            4.57691060661336       -1.50888577582331        5.19783511796989
C            5.86530933432686       -1.14271792586752        5.55319126581655
C            6.64281544701375       -0.42528627204655        4.65981698300298
C            6.13371467066815       -0.07756783034731        3.42336921894675
Cl          -0.17377483801217       -1.95588879746815        0.81802988864381
H            1.68386612201981       -0.64154152102681       -1.70591952824521
H            0.86570965383749       -1.46809090305205        0.06613331757413
H            2.70880797309333       -1.68169778529215       -0.93395460864094
H            1.92267758590126        0.98326616304060       -0.00413337487702
H            3.53068005102743        0.61582317031386       -0.66929600211526
H            2.35809039303079       -0.73831969001849        1.82377161944951
H            5.07798434957434        0.47144494083628        1.12031457909177
H            3.06213839103416       -1.45797632690704        3.70289057280912
H            3.96670490535187       -2.07038455495454        5.89025552852324
H            6.26063888999382       -1.41606559162253        6.52030373683180
H            7.64881251082405       -0.13671172406843        4.92825477879393
H            6.74671202828566        0.48304963611086        2.73108925053461

          :  Hamiltonian                  GFN2-xTB          :
         :: total energy             -32.815776500905 Eh    ::
         :: gradient norm              0.000495833458 Eh/a0 ::
         :: HOMO-LUMO gap              3.536207181292 eV    ::
         :: SCC energy               -33.316148188242 Eh    ::
         :: -> dispersion             -0.018413072444 Eh    ::
         :: repulsion energy           0.500411434273 Eh    ::

    * Orbital Energies and Occupations

         #    Occupation            Energy/Eh            Energy/eV
      -------------------------------------------------------------
         1        2.0000           -1.0182296             -27.7074
       ...           ...                  ...                  ...
        18        2.0000           -0.4837954             -13.1647
        19        2.0000           -0.4812752             -13.0962
        20        2.0000           -0.4763955             -12.9634
        21        2.0000           -0.4672641             -12.7149
        22        2.0000           -0.4485510             -12.2057
        23        2.0000           -0.4366681             -11.8823
        24        2.0000           -0.4255909             -11.5809
        25        2.0000           -0.4199274             -11.4268
        26        2.0000           -0.4052494             -11.0274
        27        2.0000           -0.4015765             -10.9275
        28        2.0000           -0.3951386             -10.7523
        29        2.0000           -0.3950991             -10.7512
        30        2.0000           -0.3854701             -10.4892 (HOMO)
        31                         -0.2555168              -6.9530 (LUMO)
        32                         -0.2226311              -6.0581
        33                         -0.1769339              -4.8146
        34                         -0.0796232              -2.1667
        35                         -0.0548285              -1.4920
        36                          0.0243010               0.6613
        37                          0.0657864               1.7901
        38                          0.0663846               1.8064
        39                          0.0717225               1.9517
        40                          0.0720927               1.9617
        41                          0.0814849               2.2173
       ...                                ...                  ...
        61                          0.6878382              18.7170
      -------------------------------------------------------------
                  HL-Gap            0.1299532 Eh            3.5362 eV

     #   Z          covCN         q      C6AA      α(0)
     1   7 N        2.692    -0.303    27.792     7.830
     2   6 C        3.735     0.008    20.520     6.465
     3   6 C        2.893    -0.052    29.296     8.874
     4   6 C        2.900    -0.040    29.001     8.830
     5   6 C        2.971     0.014    27.701     8.633
     6   6 C        2.924    -0.034    28.841     8.807
     7   6 C        2.918    -0.028    28.707     8.786
     8   6 C        2.920    -0.030    28.741     8.791
     9   6 C        2.917    -0.030    28.744     8.792
    10   6 C        2.929    -0.034    28.849     8.808
    11  17 Cl       0.837    -0.485   115.151    16.416
    12   1 H        0.860     0.165     1.304     1.789
    13   1 H        0.897     0.333     0.620     1.232
    14   1 H        0.860     0.167     1.291     1.780
    15   1 H        0.924     0.059     2.211     2.325
    16   1 H        0.923     0.028     2.611     2.527
    17   1 H        0.926     0.066     2.132     2.284
    18   1 H        0.925     0.033     2.549     2.497
    19   1 H        0.926     0.041     2.440     2.442
    20   1 H        0.926     0.033     2.545     2.495
    21   1 H        0.926     0.031     2.574     2.509
    22   1 H        0.926     0.030     2.589     2.516
    23   1 H        0.925     0.029     2.599     2.521

Wiberg/Mayer (AO) data.
largest (>0.10) Wiberg bond orders for each atom

     #   Z sym  total        # sym  WBO       # sym  WBO       # sym  WBO
 ---------------------------------------------------------------------------
     1   7 N    3.236 --     2 C    0.996    14 H    0.959    12 H    0.959
                            13 H    0.205
     2   6 C    3.973 --     3 C    1.023     1 N    0.996    16 H    0.970
                            15 H    0.958
     3   6 C    3.986 --     4 C    1.853     2 C    1.023    17 H    0.956
     4   6 C    3.991 --     3 C    1.853     5 C    1.095    18 H    0.961
     5   6 C    3.990 --    10 C    1.376     6 C    1.371     4 C    1.095
                             8 C    0.101
     6   6 C    3.992 --     7 C    1.463     5 C    1.371    19 H    0.965
                             9 C    0.106
     7   6 C    3.993 --     6 C    1.463     8 C    1.427    20 H    0.971
                            10 C    0.105
     8   6 C    3.990 --     9 C    1.434     7 C    1.427    21 H    0.972
                             5 C    0.101
     9   6 C    3.992 --    10 C    1.455     8 C    1.434    22 H    0.971
                             6 C    0.106
    10   6 C    3.989 --     9 C    1.455     5 C    1.376    23 H    0.969
                             7 C    0.105
    11  17 Cl   0.767 --    13 H    0.680
    12   1 H    0.972 --     1 N    0.959
    13   1 H    0.889 --    11 Cl   0.680     1 N    0.205
    14   1 H    0.972 --     1 N    0.959
    15   1 H    0.994 --     2 C    0.958
    16   1 H    0.999 --     2 C    0.970
    17   1 H    0.996 --     3 C    0.956
    18   1 H    0.998 --     4 C    0.961
    19   1 H    0.998 --     6 C    0.965
    20   1 H    0.998 --     7 C    0.971
    21   1 H    0.999 --     8 C    0.972
    22   1 H    0.999 --     9 C    0.971
    23   1 H    0.999 --    10 C    0.969
 ---------------------------------------------------------------------------

molecular dipole:
                 x           y           z       tot (Debye)
 q only:        1.498       0.709      -0.861
   full:        1.359       0.614      -0.960       4.509

           -------------------------------------------------
          | TOTAL ENERGY              -32.815776500905 Eh   |
          | GRADIENT NORM               0.000495833458 Eh/α |
          | HOMO-LUMO GAP               3.536207181292 eV   |
           -------------------------------------------------

 * finished run on 2023/01/23 at 18:36:51.260
