   * xtb version 6.5.1 (fef0646) compiled by 'conda@b96dff2e9fd6' on 2023-01-04
          program call               : xtb init.xyz --opt -c 0 -u 0 -P 16 --alpb water

   ID    Z sym.   atoms
    1    7 N      1
    2    6 C      2-10
    3   17 Cl     11
    4    1 H      12-23

      * Solvation model:               ALPB
        Solvent                        water
        Solvent mass                       1.8000E+01 g/mol
          :  Hamiltonian                  GFN2-xTB          :
 * total energy  :   -32.8503977 Eh     change       -0.7526282E-09 Eh
 * total energy  :   -32.8556484 Eh     change       -0.5250736E-02 Eh
 * total energy  :   -32.8569032 Eh     change       -0.1254785E-02 Eh
 * total energy  :   -32.8574635 Eh     change       -0.5602999E-03 Eh
 * total energy  :   -32.8578644 Eh     change       -0.4008841E-03 Eh
 * total energy  :   -32.8582055 Eh     change       -0.3410752E-03 Eh
 * total energy  :   -32.8585062 Eh     change       -0.3007287E-03 Eh
 * total energy  :   -32.8586731 Eh     change       -0.1668738E-03 Eh
 * total energy  :   -32.8587259 Eh     change       -0.5282326E-04 Eh
 * total energy  :   -32.8587704 Eh     change       -0.4450797E-04 Eh
 * total energy  :   -32.8588195 Eh     change       -0.4914528E-04 Eh
 * total energy  :   -32.8588904 Eh     change       -0.7086025E-04 Eh
 * total energy  :   -32.8589499 Eh     change       -0.5947903E-04 Eh
 * total energy  :   -32.8589628 Eh     change       -0.1297560E-04 Eh
 * total energy  :   -32.8589835 Eh     change       -0.2069327E-04 Eh
 * total energy  :   -32.8589900 Eh     change       -0.6492310E-05 Eh
 * total energy  :   -32.8589944 Eh     change       -0.4337423E-05 Eh
 * total energy  :   -32.8589959 Eh     change       -0.1497311E-05 Eh
   *** GEOMETRY OPTIMIZATION CONVERGED AFTER 18 ITERATIONS ***

 final structure:
================
23
 xtb: 6.5.1 (fef0646)
N            1.66436250860498        1.17350578159623        0.39412221179340
C            2.60890049811415        0.13221363745870       -0.06992773077088
C            3.09775073225771       -0.66967822722485        1.09252926718507
C            4.36200509153572       -1.05277532861698        1.25185494818422
C            4.89280355078301       -1.86150561555262        2.34077611751735
C            6.21280172188137       -2.31116213481443        2.26564715078700
C            6.76098051534673       -3.08360234295901        3.27162381739171
C            6.00243829904019       -3.41856162838467        4.38105118332054
C            4.69287363241945       -2.97380846985736        4.47364384728121
C            4.14194790557379       -2.20505780721621        3.46663877324109
Cl          -0.52343624188525       -0.10294123181781        2.11085655868013
H            1.23611298648758        1.67072571910352       -0.38969563810011
H            2.13466700217159        1.83874907968497        1.01293412193381
H            0.89328270039056        0.72923844812041        0.95708668983750
H            3.44132804634979        0.59479574466539       -0.60206061529270
H            2.07259148739694       -0.53243376743839       -0.75163175281852
H            2.32268821413388       -0.94391747963721        1.79429759153992
H            5.09442368916631       -0.76878759489228        0.50627388549009
H            6.81185836932950       -2.05484952511991        1.40379007647515
H            7.78252119436485       -3.42557755060925        3.19381580468324
H            6.42736527842778       -4.02068522848182        5.17028560771446
H            4.09731532936774       -3.22881654967452        5.33855621417678
H            3.12147748874122       -1.86589792833180        3.56065186974900

          :  Hamiltonian                  GFN2-xTB          :
         :: total energy             -32.858995866673 Eh    ::
         :: gradient norm              0.000631332332 Eh/a0 ::
         :: HOMO-LUMO gap              3.540308017764 eV    ::
         :: SCC energy               -33.367362125532 Eh    ::
         :: -> dispersion             -0.017838292973 Eh    ::
         :: -> Gsolv                  -0.075214732298 Eh    ::
         :: repulsion energy           0.508411745657 Eh    ::

    * Orbital Energies and Occupations

         #    Occupation            Energy/Eh            Energy/eV
      -------------------------------------------------------------
         1        2.0000           -1.0072663             -27.4091
       ...           ...                  ...                  ...
        18        2.0000           -0.4771289             -12.9833
        19        2.0000           -0.4736182             -12.8878
        20        2.0000           -0.4682575             -12.7419
        21        2.0000           -0.4624403             -12.5836
        22        2.0000           -0.4380931             -11.9211
        23        2.0000           -0.4283179             -11.6551
        24        2.0000           -0.4197787             -11.4228
        25        2.0000           -0.4136577             -11.2562
        26        2.0000           -0.4036345             -10.9835
        27        2.0000           -0.4010423             -10.9129
        28        2.0000           -0.4005993             -10.9009
        29        2.0000           -0.3999478             -10.8831
        30        2.0000           -0.3782127             -10.2917 (HOMO)
        31                         -0.2481087              -6.7514 (LUMO)
        32                         -0.2175612              -5.9201
        33                         -0.1703659              -4.6359
        34                         -0.0742676              -2.0209
        35                         -0.0176578              -0.4805
        36                          0.0754242               2.0524
        37                          0.0928216               2.5258
        38                          0.1027203               2.7952
        39                          0.1144097               3.1132
        40                          0.1166433               3.1740
        41                          0.1180047               3.2111
       ...                                ...                  ...
        61                          0.6930974              18.8601
      -------------------------------------------------------------
                  HL-Gap            0.1301039 Eh            3.5403 eV

     #   Z          covCN         q      C6AA      α(0)
     1   7 N        3.484    -0.170    24.665     7.376
     2   6 C        3.736    -0.027    21.147     6.563
     3   6 C        2.891    -0.043    29.078     8.841
     4   6 C        2.900    -0.048    29.182     8.857
     5   6 C        2.971     0.013    27.713     8.635
     6   6 C        2.928    -0.041    29.011     8.833
     7   6 C        2.917    -0.036    28.897     8.815
     8   6 C        2.920    -0.036    28.906     8.817
     9   6 C        2.918    -0.034    28.856     8.809
    10   6 C        2.923    -0.037    28.923     8.819
    11  17 Cl       0.048    -0.948   124.891    17.008
    12   1 H        0.859     0.305     0.697     1.308
    13   1 H        0.859     0.300     0.714     1.324
    14   1 H        0.904     0.295     0.725     1.332
    15   1 H        0.924     0.113     1.669     2.020
    16   1 H        0.924     0.114     1.667     2.019
    17   1 H        0.926     0.057     2.236     2.338
    18   1 H        0.925     0.057     2.232     2.336
    19   1 H        0.926     0.044     2.400     2.422
    20   1 H        0.926     0.035     2.518     2.482
    21   1 H        0.926     0.030     2.588     2.516
    22   1 H        0.926     0.025     2.660     2.551
    23   1 H        0.926     0.033     2.546     2.495

Wiberg/Mayer (AO) data.
largest (>0.10) Wiberg bond orders for each atom

     #   Z sym  total        # sym  WBO       # sym  WBO       # sym  WBO
 ---------------------------------------------------------------------------
     1   7 N    3.642 --     2 C    0.964    13 H    0.896    12 H    0.893
                            14 H    0.832
     2   6 C    3.932 --     3 C    1.029     1 N    0.964    15 H    0.961
                            16 H    0.947
     3   6 C    3.988 --     4 C    1.851     2 C    1.029    17 H    0.956
     4   6 C    3.989 --     3 C    1.851     5 C    1.094    18 H    0.959
     5   6 C    3.989 --     6 C    1.376    10 C    1.372     4 C    1.094
                             8 C    0.101
     6   6 C    3.988 --     7 C    1.456     5 C    1.376    19 H    0.968
                             9 C    0.105
     7   6 C    3.992 --     6 C    1.456     8 C    1.433    20 H    0.971
                            10 C    0.106
     8   6 C    3.990 --     7 C    1.433     9 C    1.428    21 H    0.972
                             5 C    0.101
     9   6 C    3.993 --    10 C    1.462     8 C    1.428    22 H    0.971
                             6 C    0.105
    10   6 C    3.992 --     9 C    1.462     5 C    1.372    23 H    0.966
                             7 C    0.106
    11  17 Cl   0.102
    12   1 H    0.906 --     1 N    0.893
    13   1 H    0.910 --     1 N    0.896
    14   1 H    0.913 --     1 N    0.832
    15   1 H    0.987 --     2 C    0.961
    16   1 H    0.984 --     2 C    0.947
    17   1 H    0.997 --     3 C    0.956
    18   1 H    0.996 --     4 C    0.959
    19   1 H    0.998 --     6 C    0.968
    20   1 H    0.998 --     7 C    0.971
    21   1 H    0.999 --     8 C    0.972
    22   1 H    0.999 --     9 C    0.971
    23   1 H    0.999 --    10 C    0.966
 ---------------------------------------------------------------------------

molecular dipole:
                 x           y           z       tot (Debye)
 q only:        4.024       2.225      -3.349
   full:        3.364       1.989      -2.833      12.268

           -------------------------------------------------
          | TOTAL ENERGY              -32.858995866673 Eh   |
          | GRADIENT NORM               0.000631332332 Eh/α |
          | HOMO-LUMO GAP               3.540308017764 eV   |
           -------------------------------------------------

 * finished run on 2023/01/24 at 15:07:43.777
