   * xtb version 6.5.1 (fef0646) compiled by 'conda@b96dff2e9fd6' on 2023-01-04
          program call               : xtb init.xyz --opt -c 1 -u 0 -P 16 --alpb water

   ID    Z sym.   atoms
    1    7 N      1
    2    6 C      2-11
    3   16 S      12, 13
    4    1 H      14-25

      * Solvation model:               ALPB
        Solvent                        water
        Solvent mass                       1.8000E+01 g/mol
          :  Hamiltonian                  GFN2-xTB          :
 * total energy  :   -36.5942785 Eh     change       -0.2711502E-09 Eh
 * total energy  :   -36.5975823 Eh     change       -0.3303873E-02 Eh
 * total energy  :   -36.5984971 Eh     change       -0.9147567E-03 Eh
 * total energy  :   -36.5989126 Eh     change       -0.4155186E-03 Eh
 * total energy  :   -36.5992842 Eh     change       -0.3715673E-03 Eh
 * total energy  :   -36.5996009 Eh     change       -0.3167713E-03 Eh
 * total energy  :   -36.6000173 Eh     change       -0.4163442E-03 Eh
 * total energy  :   -36.6004144 Eh     change       -0.3971269E-03 Eh
 * total energy  :   -36.6007274 Eh     change       -0.3129357E-03 Eh
 * total energy  :   -36.6009177 Eh     change       -0.1903401E-03 Eh
 * total energy  :   -36.6010047 Eh     change       -0.8696320E-04 Eh
 * total energy  :   -36.6010611 Eh     change       -0.5640028E-04 Eh
 * total energy  :   -36.6011094 Eh     change       -0.4839376E-04 Eh
 * total energy  :   -36.6011755 Eh     change       -0.6605389E-04 Eh
 * total energy  :   -36.6012045 Eh     change       -0.2902259E-04 Eh
 * total energy  :   -36.6012224 Eh     change       -0.1791358E-04 Eh
 * total energy  :   -36.6012289 Eh     change       -0.6499032E-05 Eh
 * total energy  :   -36.6012323 Eh     change       -0.3321878E-05 Eh
 * total energy  :   -36.6012344 Eh     change       -0.2119367E-05 Eh
   *** GEOMETRY OPTIMIZATION CONVERGED AFTER 19 ITERATIONS ***

 final structure:
================
25
 xtb: 6.5.1 (fef0646)
N            2.93084408609617       -3.34923686296438        2.11387832324479
C            2.56748131497297       -2.91922345064713        0.74623013563111
C            2.97643342521396       -1.46370996891934        0.50565433421372
C            4.45512148750405       -1.28749703780934        0.40902520945910
C            5.19633366871646       -0.93256060699743       -0.67704822977015
C            6.57968197005560       -0.86639750195256       -0.41865285969027
C            6.91134168580797       -1.17280711881148        0.87563966633464
C            8.19897394136826       -1.22694221667652        1.49293788676884
C            9.42451337866924       -0.95088155140156        0.94328391662112
C           10.48474099752462       -1.11505382546768        1.85579745022169
C           10.07100519423450       -1.51151402871569        3.08811976537514
S            8.37033688949722       -1.69466205316671        3.16371016616122
S            5.49127466479880       -1.52964003268254        1.79334698823569
H            2.67923517699263       -4.33114111626003        2.26863431514534
H            2.45501988586081       -2.76662303965060        2.81230599123445
H            3.94524236043686       -3.23587429649318        2.25597741279162
H            1.48989548093198       -3.01008122216488        0.61587268668983
H            3.06607474174966       -3.56255567615164        0.02202148948656
H            2.58681289503834       -0.83521503673507        1.30738277331964
H            2.53474577836102       -1.12468608211135       -0.43036556901838
H            4.77528781847021       -0.72005879631709       -1.64320718413975
H            7.31225709301290       -0.60250543572849       -1.15955345614494
H            9.56354568989251       -0.64012945044623       -0.07582879459119
H           11.51629539337310       -0.94279905506319        1.60568796596385
H           10.65860498142080       -1.70866453666591        3.96216961645689

          :  Hamiltonian                  GFN2-xTB          :
         :: total energy             -36.601234378774 Eh    ::
         :: gradient norm              0.000675882070 Eh/a0 ::
         :: HOMO-LUMO gap              2.593889769945 eV    ::
         :: SCC energy               -37.148463224477 Eh    ::
         :: -> dispersion             -0.024867040058 Eh    ::
         :: -> Gsolv                  -0.120185399003 Eh    ::
         :: repulsion energy           0.547277383064 Eh    ::

    * Orbital Energies and Occupations

         #    Occupation            Energy/Eh            Energy/eV
      -------------------------------------------------------------
         1        2.0000           -0.7402701             -20.1438
       ...           ...                  ...                  ...
        22        2.0000           -0.4864228             -13.2362
        23        2.0000           -0.4787292             -13.0269
        24        2.0000           -0.4748228             -12.9206
        25        2.0000           -0.4693597             -12.7719
        26        2.0000           -0.4657849             -12.6747
        27        2.0000           -0.4561109             -12.4114
        28        2.0000           -0.4518258             -12.2948
        29        2.0000           -0.4487480             -12.2111
        30        2.0000           -0.4482328             -12.1970
        31        2.0000           -0.4222189             -11.4892
        32        2.0000           -0.4050388             -11.0217
        33        2.0000           -0.4007879             -10.9060
        34        2.0000           -0.3720746             -10.1247 (HOMO)
        35                         -0.2767509              -7.5308 (LUMO)
        36                         -0.2281012              -6.2069
        37                         -0.2228446              -6.0639
        38                         -0.1957553              -5.3268
        39                         -0.1826589              -4.9704
        40                         -0.1521262              -4.1396
        41                         -0.1316335              -3.5819
        42                         -0.1234683              -3.3597
        43                         -0.0377645              -1.0276
        44                         -0.0125177              -0.3406
        45                         -0.0082963              -0.2258
       ...                                ...                  ...
        74                          0.7034621              19.1422
      -------------------------------------------------------------
                  HL-Gap            0.0953237 Eh            2.5939 eV

     #   Z          covCN         q      C6AA      α(0)
     1   7 N        3.485    -0.164    24.529     7.356
     2   6 C        3.732    -0.041    21.409     6.604
     3   6 C        3.822    -0.096    22.315     6.722
     4   6 C        2.983     0.026    27.413     8.588
     5   6 C        3.111    -0.061    29.353     8.876
     6   6 C        3.122    -0.055    29.163     8.844
     7   6 C        3.016     0.007    27.839     8.655
     8   6 C        3.030     0.013    27.695     8.632
     9   6 C        3.110    -0.060    29.338     8.874
    10   6 C        3.120    -0.049    29.020     8.823
    11   6 C        2.937    -0.029    28.720     8.789
    12  16 S        2.374    -0.026   142.121    20.065
    13  16 S        2.410    -0.022   141.975    20.054
    14   1 H        0.859     0.321     0.654     1.267
    15   1 H        0.859     0.315     0.671     1.283
    16   1 H        0.859     0.304     0.702     1.312
    17   1 H        0.925     0.126     1.567     1.958
    18   1 H        0.925     0.117     1.642     2.004
    19   1 H        0.924     0.106     1.733     2.059
    20   1 H        0.925     0.095     1.830     2.115
    21   1 H        0.926     0.050     2.319     2.381
    22   1 H        0.926     0.021     2.725     2.581
    23   1 H        0.926     0.032     2.556     2.500
    24   1 H        0.926     0.030     2.587     2.515
    25   1 H        0.926     0.040     2.446     2.446

Wiberg/Mayer (AO) data.
largest (>0.10) Wiberg bond orders for each atom

     #   Z sym  total        # sym  WBO       # sym  WBO       # sym  WBO
 ---------------------------------------------------------------------------
     1   7 N    3.649 --     2 C    0.973    15 H    0.885    14 H    0.883
                            16 H    0.873
     2   6 C    3.926 --     3 C    0.995     1 N    0.973    18 H    0.965
                            17 H    0.961
     3   6 C    3.983 --     4 C    1.025     2 C    0.995    20 H    0.959
                            19 H    0.951
     4   6 C    3.931 --     5 C    1.580    13 S    1.148     3 C    1.025
     5   6 C    3.986 --     4 C    1.580     6 C    1.295    21 H    0.962
     6   6 C    3.987 --     7 C    1.517     5 C    1.295    22 H    0.964
     7   6 C    3.957 --     6 C    1.517     8 C    1.149    13 S    1.121
     8   6 C    3.950 --     9 C    1.509     7 C    1.149    12 S    1.136
                            11 C    0.102
     9   6 C    3.984 --     8 C    1.509    10 C    1.297    23 H    0.965
    10   6 C    3.989 --    11 C    1.610     9 C    1.297    24 H    0.965
    11   6 C    3.936 --    10 C    1.610    12 S    1.191    25 H    0.972
                             8 C    0.102
    12  16 S    2.609 --    11 C    1.191     8 C    1.136
    13  16 S    2.591 --     4 C    1.148     7 C    1.121
    14   1 H    0.897 --     1 N    0.883
    15   1 H    0.901 --     1 N    0.885
    16   1 H    0.908 --     1 N    0.873
    17   1 H    0.983 --     2 C    0.961
    18   1 H    0.986 --     2 C    0.965
    19   1 H    0.987 --     3 C    0.951
    20   1 H    0.991 --     3 C    0.959
    21   1 H    0.997 --     5 C    0.962
    22   1 H    0.999 --     6 C    0.964
    23   1 H    0.999 --     9 C    0.965
    24   1 H    0.998 --    10 C    0.965
    25   1 H    0.998 --    11 C    0.972
 ---------------------------------------------------------------------------

molecular dipole:
                 x           y           z       tot (Debye)
 q only:        4.503      -6.257       3.577
   full:        5.824      -5.809       3.244      22.476

           -------------------------------------------------
          | TOTAL ENERGY              -36.601234378774 Eh   |
          | GRADIENT NORM               0.000675882070 Eh/α |
          | HOMO-LUMO GAP               2.593889769945 eV   |
           -------------------------------------------------

 * finished run on 2023/01/24 at 15:44:51.654
