   * xtb version 6.5.1 (fef0646) compiled by 'conda@b96dff2e9fd6' on 2023-01-04
          program call               : xtb init.xyz --opt -c 1 -u 0 -P 16 --input xtb.inp

   ID    Z sym.   atoms
    1    7 N      1
    2    6 C      2-11
    3   16 S      12, 13
    4    1 H      14-25

          :  Hamiltonian                  GFN2-xTB          :
 * total energy  :   -36.4860626 Eh     change       -0.1675140E-08 Eh
 * total energy  :   -36.4898150 Eh     change       -0.3752426E-02 Eh
 * total energy  :   -36.4912971 Eh     change       -0.1482129E-02 Eh
 * total energy  :   -36.4921201 Eh     change       -0.8229671E-03 Eh
 * total energy  :   -36.4928232 Eh     change       -0.7030789E-03 Eh
 * total energy  :   -36.4933520 Eh     change       -0.5288048E-03 Eh
 * total energy  :   -36.4939266 Eh     change       -0.5746314E-03 Eh
 * total energy  :   -36.4942938 Eh     change       -0.3672111E-03 Eh
 * total energy  :   -36.4945171 Eh     change       -0.2232383E-03 Eh
 * total energy  :   -36.4946786 Eh     change       -0.1615598E-03 Eh
 * total energy  :   -36.4948208 Eh     change       -0.1421790E-03 Eh
 * total energy  :   -36.4949424 Eh     change       -0.1216343E-03 Eh
 * total energy  :   -36.4950299 Eh     change       -0.8746960E-04 Eh
 * total energy  :   -36.4950952 Eh     change       -0.6529907E-04 Eh
 * total energy  :   -36.4951408 Eh     change       -0.4561143E-04 Eh
 * total energy  :   -36.4951589 Eh     change       -0.1806702E-04 Eh
 * total energy  :   -36.4951673 Eh     change       -0.8376842E-05 Eh
 * total energy  :   -36.4951710 Eh     change       -0.3699289E-05 Eh
   *** GEOMETRY OPTIMIZATION CONVERGED AFTER 18 ITERATIONS ***

 final structure:
================
25
 xtb: 6.5.1 (fef0646)
N            3.21430306408750       -0.19369491880190       -1.21127625230590
C            2.66166255365071        1.07862835756120       -0.66945305545121
C            3.05003508880916        1.21135358465753        0.80611273476313
C            4.53066371918738        1.31410186778470        0.97030492426398
C            5.28996000622585        2.40959113328562        1.23372632316067
C            6.67501061649964        2.14834304676009        1.24564622712089
C            6.99872495140930        0.84588883054369        0.97676265611302
C            8.28236269674817        0.23094124469871        0.88328440369789
C            9.50537910453260        0.77750024130099        1.19074234699378
C           10.56940909295469       -0.11298192127375        0.96939035448260
C           10.16119340272165       -1.32118792794265        0.49539111171116
S            8.46210440437682       -1.40735158659824        0.31334560309053
S            5.55094233868552       -0.10103940443958        0.75109924227337
H            3.15148280544225       -0.24179448993163       -2.23270626486285
H            2.72438999750088       -0.99992811262140       -0.80682914093810
H            4.21998034226961       -0.25520700323284       -0.90128809080582
H            1.57776368548193        1.08399687993688       -0.78623113679104
H            3.08596445503075        1.90744477142332       -1.23770729580204
H            2.66078445018361        0.35898518542671        1.36712382221102
H            2.58703422122914        2.11334681370101        1.20551495898605
H            4.87741099843030        3.38504923049944        1.41808120916148
H            7.41475323834206        2.90218606292456        1.43897934942661
H            9.63143781734553        1.77442096706489        1.57045342490546
H           11.59896111525133        0.13203160598477        1.15526029312114
H           10.75740583360381       -2.17522445871247        0.24264225147521

          :  Hamiltonian                  GFN2-xTB          :
         :: total energy             -36.495170961760 Eh    ::
         :: gradient norm              0.000943226647 Eh/a0 ::
         :: HOMO-LUMO gap              2.476200166837 eV    ::
         :: SCC energy               -37.037247939671 Eh    ::
         :: -> dispersion             -0.024909713331 Eh    ::
         :: repulsion energy           0.542109686692 Eh    ::

    * Orbital Energies and Occupations

         #    Occupation            Energy/Eh            Energy/eV
      -------------------------------------------------------------
         1        2.0000           -0.8774810             -23.8775
       ...           ...                  ...                  ...
        22        2.0000           -0.6096219             -16.5887
        23        2.0000           -0.5978630             -16.2687
        24        2.0000           -0.5808855             -15.8067
        25        2.0000           -0.5795659             -15.7708
        26        2.0000           -0.5793124             -15.7639
        27        2.0000           -0.5677529             -15.4493
        28        2.0000           -0.5630860             -15.3223
        29        2.0000           -0.5525887             -15.0367
        30        2.0000           -0.5463431             -14.8668
        31        2.0000           -0.5310279             -14.4500
        32        2.0000           -0.5239352             -14.2570
        33        2.0000           -0.4959152             -13.4945
        34        2.0000           -0.4768758             -12.9765 (HOMO)
        35                         -0.3858771             -10.5003 (LUMO)
        36                         -0.3463336              -9.4242
        37                         -0.3290128              -8.9529
        38                         -0.2965287              -8.0690
        39                         -0.2894629              -7.8767
        40                         -0.2617462              -7.1225
        41                         -0.2525636              -6.8726
        42                         -0.2344995              -6.3811
        43                         -0.2165648              -5.8930
        44                         -0.1577141              -4.2916
        45                         -0.1338333              -3.6418
       ...                                ...                  ...
        74                          0.6050239              16.4635
      -------------------------------------------------------------
                  HL-Gap            0.0909987 Eh            2.4762 eV

     #   Z          covCN         q      C6AA      α(0)
     1   7 N        3.482    -0.148    24.183     7.304
     2   6 C        3.732    -0.031    21.219     6.575
     3   6 C        3.822    -0.087    22.143     6.696
     4   6 C        2.984    -0.004    28.112     8.697
     5   6 C        3.096    -0.043    28.939     8.817
     6   6 C        3.111    -0.049    29.067     8.832
     7   6 C        3.012     0.034    27.214     8.557
     8   6 C        3.027     0.011    27.754     8.641
     9   6 C        3.104    -0.041    28.877     8.805
    10   6 C        3.115    -0.035    28.710     8.777
    11   6 C        2.939    -0.009    28.252     8.717
    12  16 S        2.351    -0.009   141.417    20.015
    13  16 S        2.393    -0.089   144.746    20.249
    14   1 H        0.859     0.264     0.831     1.428
    15   1 H        0.859     0.268     0.817     1.416
    16   1 H        0.876     0.285     0.757     1.362
    17   1 H        0.925     0.105     1.738     2.062
    18   1 H        0.924     0.107     1.723     2.052
    19   1 H        0.924     0.078     1.995     2.209
    20   1 H        0.925     0.099     1.790     2.092
    21   1 H        0.926     0.060     2.204     2.322
    22   1 H        0.926     0.060     2.198     2.319
    23   1 H        0.926     0.052     2.290     2.366
    24   1 H        0.926     0.059     2.209     2.324
    25   1 H        0.926     0.061     2.189     2.313

Wiberg/Mayer (AO) data.
largest (>0.10) Wiberg bond orders for each atom

     #   Z sym  total        # sym  WBO       # sym  WBO       # sym  WBO
 ---------------------------------------------------------------------------
     1   7 N    3.661 --     2 C    0.940    14 H    0.916    15 H    0.912
                            16 H    0.835
     2   6 C    3.901 --     3 C    0.993    18 H    0.967    17 H    0.967
                             1 N    0.940
     3   6 C    3.982 --     4 C    1.022     2 C    0.993    19 H    0.962
                            20 H    0.956
     4   6 C    3.918 --     5 C    1.599    13 S    1.106     3 C    1.022
                             7 C    0.101
     5   6 C    3.988 --     4 C    1.599     6 C    1.282    21 H    0.960
     6   6 C    3.986 --     7 C    1.528     5 C    1.282    22 H    0.959
     7   6 C    3.948 --     6 C    1.528     8 C    1.160    13 S    1.090
                             4 C    0.101
     8   6 C    3.951 --     9 C    1.490     7 C    1.160    12 S    1.134
     9   6 C    3.986 --     8 C    1.490    10 C    1.312    23 H    0.963
    10   6 C    3.987 --    11 C    1.595     9 C    1.312    24 H    0.962
    11   6 C    3.935 --    10 C    1.595    12 S    1.208    25 H    0.969
    12  16 S    2.630 --    11 C    1.208     8 C    1.134
    13  16 S    2.575 --     4 C    1.106     7 C    1.090
    14   1 H    0.930 --     1 N    0.916
    15   1 H    0.928 --     1 N    0.912
    16   1 H    0.918 --     1 N    0.835
    17   1 H    0.988 --     2 C    0.967
    18   1 H    0.989 --     2 C    0.967
    19   1 H    0.993 --     3 C    0.962
    20   1 H    0.990 --     3 C    0.956
    21   1 H    0.996 --     5 C    0.960
    22   1 H    0.996 --     6 C    0.959
    23   1 H    0.997 --     9 C    0.963
    24   1 H    0.996 --    10 C    0.962
    25   1 H    0.996 --    11 C    0.969
 ---------------------------------------------------------------------------

molecular dipole:
                 x           y           z       tot (Debye)
 q only:        7.217       0.395      -1.545
   full:        7.888       0.538      -1.315      20.372

           -------------------------------------------------
          | TOTAL ENERGY              -36.495170961760 Eh   |
          | GRADIENT NORM               0.000943226647 Eh/α |
          | HOMO-LUMO GAP               2.476200166837 eV   |
           -------------------------------------------------

 * finished run on 2023/01/23 at 19:35:59.499
