   * xtb version 6.5.1 (fef0646) compiled by 'conda@b96dff2e9fd6' on 2023-01-04
          program call               : xtb init.xyz --opt -c 1 -u 0 -P 16 --input xtb.inp

   ID    Z sym.   atoms
    1    7 N      1
    2    6 C      2-10
    3    1 H      11-22

          :  Hamiltonian                  GFN2-xTB          :
 * total energy  :   -27.8321289 Eh     change       -0.9480416E-10 Eh
 * total energy  :   -27.8347223 Eh     change       -0.2593357E-02 Eh
 * total energy  :   -27.8352424 Eh     change       -0.5201064E-03 Eh
 * total energy  :   -27.8354154 Eh     change       -0.1730022E-03 Eh
 * total energy  :   -27.8355050 Eh     change       -0.8963070E-04 Eh
 * total energy  :   -27.8355453 Eh     change       -0.4032739E-04 Eh
 * total energy  :   -27.8355863 Eh     change       -0.4100752E-04 Eh
 * total energy  :   -27.8356218 Eh     change       -0.3550582E-04 Eh
 * total energy  :   -27.8356608 Eh     change       -0.3896748E-04 Eh
 * total energy  :   -27.8356979 Eh     change       -0.3712964E-04 Eh
 * total energy  :   -27.8357300 Eh     change       -0.3204610E-04 Eh
 * total energy  :   -27.8357509 Eh     change       -0.2094462E-04 Eh
 * total energy  :   -27.8357593 Eh     change       -0.8373796E-05 Eh
 * total energy  :   -27.8357629 Eh     change       -0.3572258E-05 Eh
 * total energy  :   -27.8357642 Eh     change       -0.1354217E-05 Eh
 * total energy  :   -27.8357666 Eh     change       -0.2402559E-05 Eh
   *** GEOMETRY OPTIMIZATION CONVERGED AFTER 16 ITERATIONS ***

 final structure:
================
22
 xtb: 6.5.1 (fef0646)
N            2.17664051366162        0.44983510074898       -1.31476533353586
C            2.43799498162884       -0.07970794998364        0.07863478272580
C            2.98880408632834       -1.46992632046122       -0.02252663193726
C            4.36312518870503       -1.68458162120722       -0.07803840883681
C            4.86761413383939       -2.96226162180119       -0.20291881926757
C            4.01423270082381       -4.06599405387873       -0.28286658844502
C            4.49989731642152       -5.43303740042612       -0.41218281483369
C            5.74906839004560       -5.84032486377789       -0.21738030978904
C            2.63542969030990       -3.83711433997494       -0.23881595341812
C            2.12850614710461       -2.56109197051256       -0.10840085293250
H            1.78288802800527        1.39872673506422       -1.29751144948870
H            1.52230051588242       -0.18147056538215       -1.79546871474371
H            3.05808011360308        0.45759279330214       -1.84454114633072
H            1.49318354238071       -0.06733842487831        0.62311445501333
H            3.14459952793491        0.59198540711104        0.56672401336878
H            5.04244730742175       -0.84712379951233       -0.00646792355763
H            5.93491500027234       -3.10453428131755       -0.24561160094137
H            3.74028724963595       -6.16047402227792       -0.66891228539026
H            6.54522357331644       -5.17520229661324        0.07058418124994
H            6.01829260937585       -6.87607855714536       -0.32651148008345
H            1.95783236297773       -4.67516224787021       -0.29612835894426
H            1.05920702032494       -2.41246569920572       -0.05554875988205

          :  Hamiltonian                  GFN2-xTB          :
         :: total energy             -27.835766634373 Eh    ::
         :: gradient norm              0.000646349739 Eh/a0 ::
         :: HOMO-LUMO gap              3.303026159944 eV    ::
         :: SCC energy               -28.343611770055 Eh    ::
         :: -> dispersion             -0.016408713750 Eh    ::
         :: repulsion energy           0.507856853350 Eh    ::

    * Orbital Energies and Occupations

         #    Occupation            Energy/Eh            Energy/eV
      -------------------------------------------------------------
         1        2.0000           -0.8864032             -24.1203
       ...           ...                  ...                  ...
        14        2.0000           -0.6520390             -17.7429
        15        2.0000           -0.6267123             -17.0537
        16        2.0000           -0.6160593             -16.7638
        17        2.0000           -0.6110940             -16.6287
        18        2.0000           -0.6087851             -16.5659
        19        2.0000           -0.6030737             -16.4105
        20        2.0000           -0.5811296             -15.8133
        21        2.0000           -0.5613267             -15.2745
        22        2.0000           -0.5554143             -15.1136
        23        2.0000           -0.5446136             -14.8197
        24        2.0000           -0.5348364             -14.5536
        25        2.0000           -0.5294438             -14.4069
        26        2.0000           -0.5001809             -13.6106 (HOMO)
        27                         -0.3787969             -10.3076 (LUMO)
        28                         -0.3509586              -9.5501
        29                         -0.3019715              -8.2171
        30                         -0.2455466              -6.6817
        31                         -0.2024904              -5.5100
        32                         -0.1487252              -4.0470
        33                         -0.0862734              -2.3476
        34                         -0.0857057              -2.3322
        35                         -0.0438777              -1.1940
        36                         -0.0166872              -0.4541
        37                          0.0040616               0.1105
       ...                                ...                  ...
        52                          0.5640731              15.3492
      -------------------------------------------------------------
                  HL-Gap            0.1213840 Eh            3.3030 eV

     #   Z          covCN         q      C6AA      α(0)
     1   7 N        3.482    -0.131    23.834     7.251
     2   6 C        3.735    -0.033    21.256     6.580
     3   6 C        2.971    -0.022    28.548     8.764
     4   6 C        2.919    -0.040    28.998     8.831
     5   6 C        2.922    -0.028    28.696     8.785
     6   6 C        2.971     0.033    27.261     8.564
     7   6 C        2.896    -0.032    28.805     8.800
     8   6 C        2.838    -0.070    29.745     8.938
     9   6 C        2.926    -0.029    28.735     8.791
    10   6 C        2.919    -0.041    29.021     8.834
    11   1 H        0.859     0.266     0.826     1.424
    12   1 H        0.859     0.270     0.809     1.409
    13   1 H        0.859     0.270     0.811     1.411
    14   1 H        0.924     0.103     1.755     2.072
    15   1 H        0.924     0.103     1.757     2.073
    16   1 H        0.926     0.042     2.426     2.436
    17   1 H        0.926     0.063     2.165     2.301
    18   1 H        0.925     0.054     2.268     2.355
    19   1 H        0.926     0.058     2.226     2.333
    20   1 H        0.926     0.066     2.126     2.280
    21   1 H        0.926     0.060     2.200     2.320
    22   1 H        0.926     0.040     2.448     2.447

Wiberg/Mayer (AO) data.
largest (>0.10) Wiberg bond orders for each atom

     #   Z sym  total        # sym  WBO       # sym  WBO       # sym  WBO
 ---------------------------------------------------------------------------
     1   7 N    3.671 --    11 H    0.914    13 H    0.912    12 H    0.911
                             2 C    0.898
     2   6 C    3.881 --     3 C    1.009    15 H    0.967    14 H    0.966
                             1 N    0.898
     3   6 C    3.969 --    10 C    1.391     4 C    1.390     2 C    1.009
     4   6 C    3.991 --     5 C    1.470     3 C    1.390    16 H    0.968
     5   6 C    3.990 --     4 C    1.470     6 C    1.366    17 H    0.963
     6   6 C    3.986 --     9 C    1.366     5 C    1.366     7 C    1.097
     7   6 C    3.989 --     8 C    1.893     6 C    1.097    18 H    0.962
     8   6 C    3.982 --     7 C    1.893    20 H    0.975    19 H    0.971
     9   6 C    3.990 --    10 C    1.469     6 C    1.366    21 H    0.966
    10   6 C    3.991 --     9 C    1.469     3 C    1.391    22 H    0.968
    11   1 H    0.928 --     1 N    0.914
    12   1 H    0.927 --     1 N    0.911
    13   1 H    0.927 --     1 N    0.912
    14   1 H    0.989 --     2 C    0.966
    15   1 H    0.989 --     2 C    0.967
    16   1 H    0.998 --     4 C    0.968
    17   1 H    0.996 --     5 C    0.963
    18   1 H    0.997 --     7 C    0.962
    19   1 H    0.997 --     8 C    0.971
    20   1 H    0.995 --     8 C    0.975
    21   1 H    0.996 --     9 C    0.966
    22   1 H    0.998 --    10 C    0.968
 ---------------------------------------------------------------------------

molecular dipole:
                 x           y           z       tot (Debye)
 q only:        4.886      -0.754      -2.048
   full:        4.790      -0.549      -2.198      13.467

           -------------------------------------------------
          | TOTAL ENERGY              -27.835766634373 Eh   |
          | GRADIENT NORM               0.000646349739 Eh/α |
          | HOMO-LUMO GAP               3.303026159944 eV   |
           -------------------------------------------------

 * finished run on 2023/01/23 at 18:50:53.132
