   * xtb version 6.5.1 (fef0646) compiled by 'conda@b96dff2e9fd6' on 2023-01-04
          program call               : xtb init.xyz --opt -c 1 -u 0 -P 16 --alpb water

   ID    Z sym.   atoms
    1    7 N      1
    2    6 C      2-5
    3    1 H      6-17

      * Solvation model:               ALPB
        Solvent                        water
        Solvent mass                       1.8000E+01 g/mol
          :  Hamiltonian                  GFN2-xTB          :
 * total energy  :   -17.2782290 Eh     change       -0.6657785E-11 Eh
 * total energy  :   -17.2791797 Eh     change       -0.9506674E-03 Eh
 * total energy  :   -17.2792805 Eh     change       -0.1008099E-03 Eh
 * total energy  :   -17.2792919 Eh     change       -0.1141641E-04 Eh
 * total energy  :   -17.2792938 Eh     change       -0.1895824E-05 Eh
   *** GEOMETRY OPTIMIZATION CONVERGED AFTER 5 ITERATIONS ***

 final structure:
================
17
 xtb: 6.5.1 (fef0646)
N            0.93244663308984       -0.05854535606113        0.08836028216966
C            2.41588118489673       -0.04358566132801        0.08915039849113
C            2.93980530792583        1.37331976786429       -0.11516157750933
C            4.46827599025939        1.39847991639211       -0.12074810120693
C            4.99894423596666        2.81375283790303       -0.32143049902118
H            0.57721630385608       -1.01105426512467        0.22881612526973
H            0.57658618912137        0.29864223103887       -0.80632251753282
H            0.57410032965878        0.54237677144051        0.83997972622959
H            2.78095155115918       -0.68886435775104       -0.70974333006547
H            2.77727845969692       -0.43456401169862        1.04014778301120
H            2.58750965659553        2.02592947646527        0.68483287501698
H            2.58541609937308        1.77487720095959       -1.06545144373668
H            4.84586548334995        0.75940067667147       -0.92102416229100
H            4.84831437378880        1.00612889012260        0.82425134873661
H            4.65760508263293        3.22445439327024       -1.26920942237788
H            6.08625958693682        2.81829640157194       -0.32443529081644
H            4.66145353169212        3.47055508826354        0.47744780563280

          :  Hamiltonian                  GFN2-xTB          :
         :: total energy             -17.279293772476 Eh    ::
         :: gradient norm              0.000398910923 Eh/a0 ::
         :: HOMO-LUMO gap             10.176054998267 eV    ::
         :: SCC energy               -17.531320732310 Eh    ::
         :: -> dispersion             -0.007157753918 Eh    ::
         :: -> Gsolv                  -0.116877450711 Eh    ::
         :: repulsion energy           0.252023880998 Eh    ::

    * Orbital Energies and Occupations

         #    Occupation            Energy/Eh            Energy/eV
      -------------------------------------------------------------
         1        2.0000           -0.6925080             -18.8441
       ...           ...                  ...                  ...
         4        2.0000           -0.6007872             -16.3483
         5        2.0000           -0.5901424             -16.0586
         6        2.0000           -0.5813370             -15.8190
         7        2.0000           -0.5552239             -15.1084
         8        2.0000           -0.5450313             -14.8311
         9        2.0000           -0.5202029             -14.1554
        10        2.0000           -0.4967051             -13.5160
        11        2.0000           -0.4850017             -13.1976
        12        2.0000           -0.4751896             -12.9306
        13        2.0000           -0.4484003             -12.2016
        14        2.0000           -0.4480707             -12.1926
        15        2.0000           -0.4379550             -11.9174
        16        2.0000           -0.4251883             -11.5700 (HOMO)
        17                         -0.0512252              -1.3939 (LUMO)
        18                          0.0494598               1.3459
        19                          0.0790638               2.1514
        20                          0.0997957               2.7156
        21                          0.1176501               3.2014
        22                          0.1417894               3.8583
        23                          0.1516757               4.1273
        24                          0.1519292               4.1342
        25                          0.1691954               4.6040
        26                          0.1881036               5.1186
        27                          0.2103443               5.7238
       ...                                ...                  ...
        32                          0.3082841               8.3888
      -------------------------------------------------------------
                  HL-Gap            0.3739631 Eh           10.1761 eV

     #   Z          covCN         q      C6AA      α(0)
     1   7 N        3.485    -0.162    24.486     7.349
     2   6 C        3.732    -0.038    21.340     6.594
     3   6 C        3.803    -0.086    22.143     6.699
     4   6 C        3.802    -0.065    21.747     6.639
     5   6 C        3.752    -0.115    22.770     6.805
     6   1 H        0.859     0.316     0.668     1.280
     7   1 H        0.859     0.309     0.688     1.299
     8   1 H        0.859     0.309     0.688     1.300
     9   1 H        0.925     0.106     1.732     2.058
    10   1 H        0.925     0.106     1.731     2.058
    11   1 H        0.924     0.066     2.129     2.282
    12   1 H        0.924     0.066     2.128     2.281
    13   1 H        0.924     0.041     2.433     2.439
    14   1 H        0.924     0.041     2.433     2.439
    15   1 H        0.925     0.039     2.465     2.455
    16   1 H        0.925     0.029     2.602     2.523
    17   1 H        0.925     0.039     2.465     2.455

Wiberg/Mayer (AO) data.
largest (>0.10) Wiberg bond orders for each atom

     #   Z sym  total        # sym  WBO       # sym  WBO       # sym  WBO
 ---------------------------------------------------------------------------
     1   7 N    3.653 --     2 C    0.966     8 H    0.890     7 H    0.890
                             6 H    0.887
     2   6 C    3.927 --     3 C    1.011     9 H    0.967    10 H    0.967
                             1 N    0.966
     3   6 C    3.991 --     2 C    1.011     4 C    1.005    11 H    0.973
                            12 H    0.973
     4   6 C    3.996 --     5 C    1.019     3 C    1.005    13 H    0.978
                            14 H    0.978
     5   6 C    3.995 --     4 C    1.019    17 H    0.987    15 H    0.987
                            16 H    0.987
     6   1 H    0.900 --     1 N    0.887
     7   1 H    0.905 --     1 N    0.890
     8   1 H    0.905 --     1 N    0.890
     9   1 H    0.989 --     2 C    0.967
    10   1 H    0.989 --     2 C    0.967
    11   1 H    0.996 --     3 C    0.973
    12   1 H    0.996 --     3 C    0.973
    13   1 H    0.998 --     4 C    0.978
    14   1 H    0.998 --     4 C    0.978
    15   1 H    0.998 --     5 C    0.987
    16   1 H    0.999 --     5 C    0.987
    17   1 H    0.998 --     5 C    0.987
 ---------------------------------------------------------------------------

molecular dipole:
                 x           y           z       tot (Debye)
 q only:        1.969      -0.070       0.162
   full:        1.915      -0.039       0.157       4.885

           -------------------------------------------------
          | TOTAL ENERGY              -17.279293772476 Eh   |
          | GRADIENT NORM               0.000398910923 Eh/α |
          | HOMO-LUMO GAP              10.176054998267 eV   |
           -------------------------------------------------

 * finished run on 2023/01/24 at 14:57:47.693
