   * xtb version 6.5.1 (fef0646) compiled by 'conda@b96dff2e9fd6' on 2023-01-04
          program call               : xtb init.xyz --opt -c 0 -u 0 -P 16

   ID    Z sym.   atoms
    1    7 N      1
    2    6 C      2-6
    3   16 S      7
    4   17 Cl     8
    5    1 H      9-16

          :  Hamiltonian                  GFN2-xTB          :
 * total energy  :   -25.4456352 Eh     change       -0.3414193E-09 Eh
 * total energy  :   -25.4526498 Eh     change       -0.7014573E-02 Eh
 * total energy  :   -25.4593976 Eh     change       -0.6747828E-02 Eh
 * total energy  :   -25.4638853 Eh     change       -0.4487692E-02 Eh
 * total energy  :   -25.4677286 Eh     change       -0.3843330E-02 Eh
 * total energy  :   -25.4699239 Eh     change       -0.2195296E-02 Eh
 * total energy  :   -25.4714558 Eh     change       -0.1531916E-02 Eh
 * total energy  :   -25.4723948 Eh     change       -0.9389159E-03 Eh
 * total energy  :   -25.4724799 Eh     change       -0.8512507E-04 Eh
 * total energy  :   -25.4729183 Eh     change       -0.4384013E-03 Eh
 * total energy  :   -25.4731946 Eh     change       -0.6933429E-04 Eh
 * total energy  :   -25.4732400 Eh     change       -0.4534790E-04 Eh
 * total energy  :   -25.4732655 Eh     change       -0.2550617E-04 Eh
 * total energy  :   -25.4732843 Eh     change       -0.1885062E-04 Eh
 * total energy  :   -25.4732945 Eh     change       -0.1018500E-04 Eh
 * total energy  :   -25.4733136 Eh     change       -0.1905685E-04 Eh
 * total energy  :   -25.4733228 Eh     change       -0.9230849E-05 Eh
 * total energy  :   -25.4733342 Eh     change       -0.1141470E-04 Eh
 * total energy  :   -25.4733389 Eh     change       -0.4647626E-05 Eh
   *** GEOMETRY OPTIMIZATION CONVERGED AFTER 22 ITERATIONS ***

 final structure:
================
16
 xtb: 6.5.1 (fef0646)
N            1.46824575720529       -0.49388315108241       -0.29657743924226
C            2.77723136633119       -0.03027162280979        0.18189670100337
C            3.07764692023269        1.31616077682913       -0.38565506795025
C            2.69002130895970        2.53380596409754        0.07809445448431
C            3.12045673560958        3.59979079669683       -0.74329891278443
C            3.82420295948113        3.17739140298501       -1.82240883245776
S            3.97740761969735        1.46696139187620       -1.86324053040473
Cl          -0.64853269535053        1.27423123315439        0.73232842049801
H            1.26457883769214       -1.42444995322420        0.05151215314312
H            1.44544052758109       -0.51123709125094       -1.31132503899795
H            0.33719740375328        0.47428871810218        0.24053167904809
H            3.58258659287823       -0.72821732870310       -0.08596339415564
H            2.71908784529538        0.03770835956106        1.27154960259765
H            2.10980503431742        2.66337984757998        0.97275316514536
H            2.91331359938264        4.63415773889005       -0.53650885791700
H            4.26844018693337        3.76053291729859       -2.60432810200967

          :  Hamiltonian                  GFN2-xTB          :
         :: total energy             -25.473338886771 Eh    ::
         :: gradient norm              0.000453339189 Eh/a0 ::
         :: HOMO-LUMO gap              3.926071407738 eV    ::
         :: SCC energy               -25.768743397713 Eh    ::
         :: -> dispersion             -0.013690903469 Eh    ::
         :: repulsion energy           0.295342750604 Eh    ::

    * Orbital Energies and Occupations

         #    Occupation            Energy/Eh            Energy/eV
      -------------------------------------------------------------
         1        2.0000           -1.0202439             -27.7622
       ...           ...                  ...                  ...
        11        2.0000           -0.5376058             -14.6290
        12        2.0000           -0.5145650             -14.0020
        13        2.0000           -0.4924423             -13.4000
        14        2.0000           -0.4835916             -13.1592
        15        2.0000           -0.4739604             -12.8971
        16        2.0000           -0.4708968             -12.8138
        17        2.0000           -0.4602532             -12.5241
        18        2.0000           -0.4531147             -12.3299
        19        2.0000           -0.4053178             -11.0293
        20        2.0000           -0.4021842             -10.9440
        21        2.0000           -0.3974329             -10.8147
        22        2.0000           -0.3973209             -10.8117
        23        2.0000           -0.3958463             -10.7715 (HOMO)
        24                         -0.2515658              -6.8455 (LUMO)
        25                         -0.2095070              -5.7010
        26                         -0.1735699              -4.7231
        27                         -0.1235023              -3.3607
        28                         -0.0581729              -1.5830
        29                         -0.0122269              -0.3327
        30                          0.0070966               0.1931
        31                          0.0269996               0.7347
        32                          0.0414657               1.1283
        33                          0.0631101               1.7173
        34                          0.0633242               1.7231
       ...                                ...                  ...
        50                          0.6947611              18.9054
      -------------------------------------------------------------
                  HL-Gap            0.1442805 Eh            3.9261 eV

     #   Z          covCN         q      C6AA      α(0)
     1   7 N        2.677    -0.310    27.964     7.854
     2   6 C        3.755     0.008    20.502     6.456
     3   6 C        2.991     0.009    27.803     8.649
     4   6 C        3.117    -0.047    28.997     8.820
     5   6 C        3.118    -0.041    28.845     8.797
     6   6 C        2.940    -0.019    28.488     8.754
     7  16 S        2.332    -0.040   142.728    20.107
     8  17 Cl       0.839    -0.473   114.713    16.385
     9   1 H        0.860     0.168     1.284     1.775
    10   1 H        0.860     0.170     1.272     1.766
    11   1 H        0.884     0.332     0.623     1.236
    12   1 H        0.923     0.037     2.493     2.469
    13   1 H        0.924     0.061     2.183     2.311
    14   1 H        0.926     0.058     2.228     2.334
    15   1 H        0.926     0.043     2.407     2.426
    16   1 H        0.926     0.045     2.385     2.415

Wiberg/Mayer (AO) data.
largest (>0.10) Wiberg bond orders for each atom

     #   Z sym  total        # sym  WBO       # sym  WBO       # sym  WBO
 ---------------------------------------------------------------------------
     1   7 N    3.220 --     2 C    0.993    10 H    0.957     9 H    0.957
                            11 H    0.190
     2   6 C    3.978 --     3 C    1.020     1 N    0.993    12 H    0.969
                            13 H    0.966
     3   6 C    3.946 --     4 C    1.606     7 S    1.157     2 C    1.020
                             6 C    0.118
     4   6 C    3.988 --     3 C    1.606     5 C    1.270    14 H    0.961
     5   6 C    3.989 --     6 C    1.634     4 C    1.270    15 H    0.964
     6   6 C    3.948 --     5 C    1.634     7 S    1.190    16 H    0.971
                             3 C    0.118
     7  16 S    2.611 --     6 C    1.190     3 C    1.157
     8  17 Cl   0.778 --    11 H    0.696
     9   1 H    0.971 --     1 N    0.957
    10   1 H    0.971 --     1 N    0.957
    11   1 H    0.890 --     8 Cl   0.696     1 N    0.190
    12   1 H    0.998 --     2 C    0.969
    13   1 H    0.996 --     2 C    0.966
    14   1 H    0.997 --     4 C    0.961
    15   1 H    0.998 --     5 C    0.964
    16   1 H    0.998 --     6 C    0.971
 ---------------------------------------------------------------------------

molecular dipole:
                 x           y           z       tot (Debye)
 q only:        1.360      -0.941      -0.498
   full:        1.124      -0.765      -0.384       3.591

           -------------------------------------------------
          | TOTAL ENERGY              -25.473338886771 Eh   |
          | GRADIENT NORM               0.000453339189 Eh/α |
          | HOMO-LUMO GAP               3.926071407738 eV   |
           -------------------------------------------------

 * finished run on 2023/01/23 at 13:45:54.757
