   * xtb version 6.5.1 (fef0646) compiled by 'conda@b96dff2e9fd6' on 2023-01-04
          program call               : xtb init.xyz --opt -c 0 -u 0 -P 16

   ID    Z sym.   atoms
    1    7 N      1
    2    6 C      2-5
    3   17 Cl     6
    4    1 H      7-18

          :  Hamiltonian                  GFN2-xTB          :
 * total energy  :   -22.1305769 Eh     change       -0.1033555E-08 Eh
 * total energy  :   -22.1394522 Eh     change       -0.8875387E-02 Eh
 * total energy  :   -22.1434167 Eh     change       -0.3964454E-02 Eh
 * total energy  :   -22.1466793 Eh     change       -0.3262621E-02 Eh
 * total energy  :   -22.1490088 Eh     change       -0.2329441E-02 Eh
 * total energy  :   -22.1510652 Eh     change       -0.2056425E-02 Eh
 * total energy  :   -22.1515454 Eh     change       -0.4801808E-03 Eh
 * total energy  :   -22.1518073 Eh     change       -0.2619277E-03 Eh
 * total energy  :   -22.1518902 Eh     change       -0.8287532E-04 Eh
 * total energy  :   -22.1519504 Eh     change       -0.6021067E-04 Eh
 * total energy  :   -22.1520141 Eh     change       -0.6371727E-04 Eh
 * total energy  :   -22.1520808 Eh     change       -0.6674788E-04 Eh
 * total energy  :   -22.1521229 Eh     change       -0.4203826E-04 Eh
 * total energy  :   -22.1521393 Eh     change       -0.1646068E-04 Eh
 * total energy  :   -22.1521514 Eh     change       -0.1203462E-04 Eh
 * total energy  :   -22.1521938 Eh     change       -0.4240572E-04 Eh
 * total energy  :   -22.1522093 Eh     change       -0.1552250E-04 Eh
 * total energy  :   -22.1522181 Eh     change       -0.8779106E-05 Eh
 * total energy  :   -22.1522225 Eh     change       -0.4384193E-05 Eh
   *** GEOMETRY OPTIMIZATION CONVERGED AFTER 19 ITERATIONS ***

 final structure:
================
18
 xtb: 6.5.1 (fef0646)
N            1.11669452591302        0.25983807402321       -0.39896175756235
C            2.57562214094903        0.35399876919754       -0.35288546368326
C            3.02377182237572        0.83515117661533        1.02328724282570
C            4.54462956513808        0.86036519624003        1.15288499606016
C            4.97721528111092        1.34137823381639        2.53233120167316
Cl           0.15514984747539       -1.63110986802876        1.62525207846801
H            0.79572683087877       -0.06630416132127       -1.30372226285579
H            0.69245388622972        1.16144842071131       -0.20581498772460
H            0.61699666615444       -0.74551800737035        0.68113991907533
H            2.96921490713877        1.02763212246051       -1.12792060020088
H            2.97367878788463       -0.64623949879551       -0.53945050982954
H            2.60241881756835        0.17005806954892        1.77748907310479
H            2.62855474046661        1.83809797994907        1.20202229076292
H            4.96569778674367        1.51826485648093        0.38840948791616
H            4.93680681811684       -0.14373565228300        0.97890153551192
H            4.61458560801274        2.35043000965980        2.71676277805002
H            6.06127181331244        1.34561511060278        2.61400818517134
H            4.57610015453068        0.68748916849297        3.30316679323696

          :  Hamiltonian                  GFN2-xTB          :
         :: total energy             -22.152222466364 Eh    ::
         :: gradient norm              0.000497184495 Eh/a0 ::
         :: HOMO-LUMO gap              9.164242802413 eV    ::
         :: SCC energy               -22.393945878570 Eh    ::
         :: -> dispersion             -0.009765832601 Eh    ::
         :: repulsion energy           0.241689645569 Eh    ::

    * Orbital Energies and Occupations

         #    Occupation            Energy/Eh            Energy/eV
      -------------------------------------------------------------
         1        2.0000           -1.0158636             -27.6431
       ...           ...                  ...                  ...
         8        2.0000           -0.5438525             -14.7990
         9        2.0000           -0.5261284             -14.3167
        10        2.0000           -0.5120076             -13.9324
        11        2.0000           -0.4944940             -13.4559
        12        2.0000           -0.4849719             -13.1968
        13        2.0000           -0.4760203             -12.9532
        14        2.0000           -0.4559319             -12.4065
        15        2.0000           -0.4497842             -12.2392
        16        2.0000           -0.4433922             -12.0653
        17        2.0000           -0.4322990             -11.7635
        18        2.0000           -0.3983879             -10.8407
        19        2.0000           -0.3929692             -10.6932
        20        2.0000           -0.3929319             -10.6922 (HOMO)
        21                         -0.0561522              -1.5280 (LUMO)
        22                          0.0124252               0.3381
        23                          0.0682706               1.8577
        24                          0.0686849               1.8690
        25                          0.0742465               2.0203
        26                          0.0744536               2.0260
        27                          0.0765030               2.0818
        28                          0.0966295               2.6294
        29                          0.1144720               3.1149
        30                          0.1209732               3.2918
        31                          0.1421129               3.8671
       ...                                ...                  ...
        41                          0.3014164               8.2020
      -------------------------------------------------------------
                  HL-Gap            0.3367797 Eh            9.1642 eV

     #   Z          covCN         q      C6AA      α(0)
     1   7 N        2.697    -0.305    27.850     7.838
     2   6 C        3.732     0.007    20.546     6.470
     3   6 C        3.804    -0.075    21.921     6.665
     4   6 C        3.801    -0.054    21.547     6.609
     5   6 C        3.753    -0.105    22.570     6.775
     6  17 Cl       0.837    -0.487   115.209    16.420
     7   1 H        0.860     0.166     1.300     1.786
     8   1 H        0.860     0.167     1.290     1.779
     9   1 H        0.903     0.332     0.623     1.235
    10   1 H        0.923     0.023     2.685     2.563
    11   1 H        0.924     0.051     2.302     2.373
    12   1 H        0.924     0.063     2.163     2.300
    13   1 H        0.924     0.038     2.478     2.461
    14   1 H        0.924     0.030     2.591     2.517
    15   1 H        0.924     0.035     2.516     2.481
    16   1 H        0.925     0.036     2.503     2.474
    17   1 H        0.925     0.037     2.487     2.466
    18   1 H        0.925     0.041     2.434     2.440

Wiberg/Mayer (AO) data.
largest (>0.10) Wiberg bond orders for each atom

     #   Z sym  total        # sym  WBO       # sym  WBO       # sym  WBO
 ---------------------------------------------------------------------------
     1   7 N    3.241 --     2 C    1.004     7 H    0.959     8 H    0.958
                             9 H    0.208
     2   6 C    3.973 --     3 C    1.006     1 N    1.004    11 H    0.974
                            10 H    0.973
     3   6 C    3.993 --     4 C    1.007     2 C    1.006    13 H    0.976
                            12 H    0.973
     4   6 C    3.998 --     5 C    1.019     3 C    1.007    14 H    0.978
                            15 H    0.978
     5   6 C    3.996 --     4 C    1.019    16 H    0.988    18 H    0.987
                            17 H    0.987
     6  17 Cl   0.766 --     9 H    0.677
     7   1 H    0.972 --     1 N    0.959
     8   1 H    0.972 --     1 N    0.958
     9   1 H    0.890 --     6 Cl   0.677     1 N    0.208
    10   1 H    0.999 --     2 C    0.973
    11   1 H    0.997 --     2 C    0.974
    12   1 H    0.996 --     3 C    0.973
    13   1 H    0.999 --     3 C    0.976
    14   1 H    0.999 --     4 C    0.978
    15   1 H    0.999 --     4 C    0.978
    16   1 H    0.999 --     5 C    0.988
    17   1 H    0.998 --     5 C    0.987
    18   1 H    0.998 --     5 C    0.987
 ---------------------------------------------------------------------------

molecular dipole:
                 x           y           z       tot (Debye)
 q only:        0.840       1.280      -1.176
   full:        0.662       1.227      -1.208       4.690

           -------------------------------------------------
          | TOTAL ENERGY              -22.152222466364 Eh   |
          | GRADIENT NORM               0.000497184495 Eh/α |
          | HOMO-LUMO GAP               9.164242802413 eV   |
           -------------------------------------------------

 * finished run on 2023/01/23 at 14:12:37.693
