   * xtb version 6.5.1 (fef0646) compiled by 'conda@b96dff2e9fd6' on 2023-01-04
          program call               : xtb init.xyz --opt -c 0 -u 0 -P 16 --alpb water

   ID    Z sym.   atoms
    1    7 N      1
    2    6 C      2-7, 9, 10
    3   17 Cl     8, 11
    4    1 H      12-22

      * Solvation model:               ALPB
        Solvent                        water
        Solvent mass                       1.8000E+01 g/mol
          :  Hamiltonian                  GFN2-xTB          :
 * total energy  :   -34.7895692 Eh     change       -0.3785487E-09 Eh
 * total energy  :   -34.7951876 Eh     change       -0.5618395E-02 Eh
 * total energy  :   -34.7965350 Eh     change       -0.1347347E-02 Eh
 * total energy  :   -34.7971828 Eh     change       -0.6477717E-03 Eh
 * total energy  :   -34.7975849 Eh     change       -0.4021156E-03 Eh
 * total energy  :   -34.7980331 Eh     change       -0.4482118E-03 Eh
 * total energy  :   -34.7986044 Eh     change       -0.5713350E-03 Eh
 * total energy  :   -34.7989931 Eh     change       -0.3887020E-03 Eh
 * total energy  :   -34.7992010 Eh     change       -0.2078423E-03 Eh
 * total energy  :   -34.7993134 Eh     change       -0.1124432E-03 Eh
 * total energy  :   -34.8004316 Eh     change       -0.6765134E-05 Eh
 * total energy  :   -34.8004394 Eh     change       -0.7743647E-05 Eh
 * total energy  :   -34.8004500 Eh     change       -0.1066136E-04 Eh
 * total energy  :   -34.8004634 Eh     change       -0.1340683E-04 Eh
 * total energy  :   -34.8004799 Eh     change       -0.1641540E-04 Eh
 * total energy  :   -34.8004873 Eh     change       -0.7438740E-05 Eh
 * total energy  :   -34.8004777 Eh     change        0.9574447E-05 Eh
 * total energy  :   -34.8004916 Eh     change       -0.1383845E-04 Eh
 * total energy  :   -34.8004938 Eh     change       -0.2231676E-05 Eh
   *** GEOMETRY OPTIMIZATION CONVERGED AFTER 34 ITERATIONS ***

 final structure:
================
22
 xtb: 6.5.1 (fef0646)
N            1.13027407770563        0.34206556198436        0.17060358386940
C            2.59722213604180        0.49333909695879        0.11905351511166
C            3.06525668458227        0.47846195870239       -1.33684171443261
C            4.56446745045702        0.41258830872966       -1.40490928296524
C            5.21342330890599       -0.81128478220689       -1.29270455880553
C            6.59380417843095       -0.89111879521065       -1.32581287520992
C            7.33112255941740        0.27192651316835       -1.46964872330632
Cl           9.07487687719715        0.17940155961587       -1.52062604356468
C            6.71017632664931        1.50308491981897       -1.57988777754695
C            5.32763589434912        1.56458781556090       -1.54452522254409
Cl           0.40980319182542       -2.32557900880405       -1.13593605207519
H            0.78725045352475        0.32598720990861        1.13356705045681
H            0.85768332376120       -0.57015529160759       -0.27950212320212
H            0.66657722773924        1.09065004137814       -0.35008272000690
H            3.05221121172031       -0.34353835170015        0.64802783375654
H            2.89206205536183        1.42546317829657        0.60173662443966
H            2.71453230691413        1.37093949942660       -1.85341103320160
H            2.63645387011767       -0.40085858651778       -1.82050385975785
H            4.63199113610238       -1.71487087451243       -1.18780167530384
H            7.09367640858516       -1.84304140374059       -1.24383557229797
H            7.30111475881298        2.39736730598050       -1.69373938752196
H            4.84396456179471        2.52459412475499       -1.63508998588836

          :  Hamiltonian                  GFN2-xTB          :
         :: total energy             -34.800493798966 Eh    ::
         :: gradient norm              0.000508606607 Eh/a0 ::
         :: HOMO-LUMO gap              4.403656536927 eV    ::
         :: SCC energy               -35.239767556773 Eh    ::
         :: -> dispersion             -0.018395199106 Eh    ::
         :: -> Gsolv                  -0.078511276008 Eh    ::
         :: repulsion energy           0.439290647449 Eh    ::

    * Orbital Energies and Occupations

         #    Occupation            Energy/Eh            Energy/eV
      -------------------------------------------------------------
         1        2.0000           -1.0615937             -28.8874
       ...           ...                  ...                  ...
        19        2.0000           -0.4820261             -13.1166
        20        2.0000           -0.4777600             -13.0005
        21        2.0000           -0.4703505             -12.7989
        22        2.0000           -0.4438494             -12.0778
        23        2.0000           -0.4397416             -11.9660
        24        2.0000           -0.4361684             -11.8687
        25        2.0000           -0.4288910             -11.6707
        26        2.0000           -0.4171008             -11.3499
        27        2.0000           -0.4110037             -11.1840
        28        2.0000           -0.4017213             -10.9314
        29        2.0000           -0.3991645             -10.8618
        30        2.0000           -0.3990743             -10.8594
        31        2.0000           -0.3918694             -10.6633 (HOMO)
        32                         -0.2300380              -6.2597 (LUMO)
        33                         -0.2294818              -6.2445
        34                         -0.1383988              -3.7660
        35                         -0.1041967              -2.8353
        36                         -0.0236039              -0.6423
        37                          0.0138390               0.3766
        38                          0.0179739               0.4891
        39                          0.0180495               0.4912
        40                          0.0303844               0.8268
        41                          0.0795328               2.1642
        42                          0.1014417               2.7604
       ...                                ...                  ...
        65                          0.6477948              17.6274
      -------------------------------------------------------------
                  HL-Gap            0.1618314 Eh            4.4037 eV

     #   Z          covCN         q      C6AA      α(0)
     1   7 N        3.484    -0.170    24.671     7.377
     2   6 C        3.734    -0.023    21.069     6.551
     3   6 C        3.809    -0.090    22.205     6.708
     4   6 C        2.970     0.020    27.548     8.609
     5   6 C        2.928    -0.038    28.942     8.823
     6   6 C        2.948    -0.043    29.057     8.841
     7   6 C        2.891     0.097    25.843     8.335
     8  17 Cl       0.957    -0.241   106.798    15.810
     9   6 C        2.948    -0.044    29.092     8.846
    10   6 C        2.928    -0.042    29.039     8.837
    11  17 Cl       0.050    -0.947   124.867    17.007
    12   1 H        0.859     0.305     0.699     1.310
    13   1 H        0.907     0.296     0.720     1.328
    14   1 H        0.859     0.300     0.713     1.322
    15   1 H        0.925     0.098     1.805     2.101
    16   1 H        0.924     0.109     1.706     2.043
    17   1 H        0.925     0.080     1.984     2.202
    18   1 H        0.924     0.078     2.003     2.213
    19   1 H        0.926     0.059     2.208     2.324
    20   1 H        0.926     0.054     2.265     2.353
    21   1 H        0.926     0.065     2.142     2.289
    22   1 H        0.926     0.076     2.023     2.224

Wiberg/Mayer (AO) data.
largest (>0.10) Wiberg bond orders for each atom

     #   Z sym  total        # sym  WBO       # sym  WBO       # sym  WBO
 ---------------------------------------------------------------------------
     1   7 N    3.643 --     2 C    0.972    14 H    0.895    12 H    0.893
                            13 H    0.830
     2   6 C    3.932 --     3 C    0.992     1 N    0.972    15 H    0.969
                            16 H    0.967
     3   6 C    3.988 --     4 C    1.011     2 C    0.992    17 H    0.969
                            18 H    0.963
     4   6 C    3.989 --    10 C    1.413     5 C    1.406     3 C    1.011
     5   6 C    3.989 --     6 C    1.446     4 C    1.406    19 H    0.966
                             9 C    0.110
     6   6 C    3.988 --     5 C    1.446     7 C    1.407    20 H    0.967
                            10 C    0.108
     7   6 C    3.892 --     9 C    1.411     6 C    1.407     8 Cl   0.931
     8  17 Cl   1.051 --     7 C    0.931
     9   6 C    3.986 --    10 C    1.438     7 C    1.411    21 H    0.966
                             5 C    0.110
    10   6 C    3.986 --     9 C    1.438     4 C    1.413    22 H    0.964
                             6 C    0.108
    11  17 Cl   0.103
    12   1 H    0.907 --     1 N    0.893
    13   1 H    0.912 --     1 N    0.830
    14   1 H    0.910 --     1 N    0.895
    15   1 H    0.990 --     2 C    0.969
    16   1 H    0.988 --     2 C    0.967
    17   1 H    0.993 --     3 C    0.969
    18   1 H    0.994 --     3 C    0.963
    19   1 H    0.996 --     5 C    0.966
    20   1 H    0.997 --     6 C    0.967
    21   1 H    0.995 --     9 C    0.966
    22   1 H    0.994 --    10 C    0.964
 ---------------------------------------------------------------------------

molecular dipole:
                 x           y           z       tot (Debye)
 q only:       -0.121       4.953       2.313
   full:       -0.027       4.184       2.010      11.798

           -------------------------------------------------
          | TOTAL ENERGY              -34.800493798966 Eh   |
          | GRADIENT NORM               0.000508606607 Eh/α |
          | HOMO-LUMO GAP               4.403656536927 eV   |
           -------------------------------------------------

 * finished run on 2023/01/24 at 14:57:39.733
