   * xtb version 6.5.1 (fef0646) compiled by 'conda@b96dff2e9fd6' on 2023-01-04
          program call               : xtb init.xyz --opt -c 1 -u 0 -P 16

   ID    Z sym.   atoms
    1    8 O      1
    2    6 C      2-4
    3    7 N      5
    4    1 H      6-15

          :  Hamiltonian                  GFN2-xTB          :
 * total energy  :   -18.0765300 Eh     change       -0.3262102E-10 Eh
 * total energy  :   -18.0784470 Eh     change       -0.1916975E-02 Eh
 * total energy  :   -18.0789545 Eh     change       -0.5075299E-03 Eh
 * total energy  :   -18.0791385 Eh     change       -0.1839843E-03 Eh
 * total energy  :   -18.0792214 Eh     change       -0.8293824E-04 Eh
 * total energy  :   -18.0792565 Eh     change       -0.3507240E-04 Eh
 * total energy  :   -18.0792833 Eh     change       -0.2676233E-04 Eh
 * total energy  :   -18.0792942 Eh     change       -0.1093390E-04 Eh
 * total energy  :   -18.0792970 Eh     change       -0.2774508E-05 Eh
   *** GEOMETRY OPTIMIZATION CONVERGED AFTER 9 ITERATIONS ***

 final structure:
================
15
 xtb: 6.5.1 (fef0646)
O            2.96380403026167       -1.30594046717020        0.21430281797842
C            2.48158781141390        0.03776422623668        0.14284121421306
C            2.99742102638064        0.67755725476286       -1.14618705284464
C            4.51996661442053        0.72183341857686       -1.18274049119992
N            5.03277216392871       -0.67772902008853       -1.21803181604792
H            2.56267227511026       -1.75842884357457        0.96357538669831
H            2.83243444227018        0.60347006680060        1.01419248483444
H            1.38861106132665        0.04334552898169        0.13989010640321
H            2.60446473588608        1.69053846852788       -1.21075978364915
H            2.62047017977404        0.11645422361917       -2.00243606435062
H            4.90172731336091        1.20516933047754       -0.28190873338494
H            4.87655363209102        1.27343964520970       -2.05315131319411
H            4.41170683188422       -1.20619873755777       -0.53651456430477
H            6.02053577020193       -0.74544472657025       -0.95989624117546
H            4.90023211168927       -1.09213036823167       -2.14588594997589

          :  Hamiltonian                  GFN2-xTB          :
         :: total energy             -18.079296960136 Eh    ::
         :: gradient norm              0.000431636417 Eh/a0 ::
         :: HOMO-LUMO gap              9.273475706748 eV    ::
         :: SCC energy               -18.283327195957 Eh    ::
         :: -> dispersion             -0.006407188126 Eh    ::
         :: repulsion energy           0.204018163837 Eh    ::

    * Orbital Energies and Occupations

         #    Occupation            Energy/Eh            Energy/eV
      -------------------------------------------------------------
         1        2.0000           -0.8765409             -23.8519
       ...           ...                  ...                  ...
         4        2.0000           -0.7996911             -21.7607
         5        2.0000           -0.7823069             -21.2877
         6        2.0000           -0.7792741             -21.2051
         7        2.0000           -0.7591594             -20.6578
         8        2.0000           -0.7295272             -19.8514
         9        2.0000           -0.7236239             -19.6908
        10        2.0000           -0.6897038             -18.7678
        11        2.0000           -0.6869046             -18.6916
        12        2.0000           -0.6719160             -18.2838
        13        2.0000           -0.6403764             -17.4255
        14        2.0000           -0.6301996             -17.1486
        15        2.0000           -0.6108934             -16.6233
        16        2.0000           -0.5793162             -15.7640 (HOMO)
        17                         -0.2385222              -6.4905 (LUMO)
        18                         -0.1623024              -4.4165
        19                         -0.1218468              -3.3156
        20                         -0.0960054              -2.6124
        21                         -0.0643521              -1.7511
        22                         -0.0567078              -1.5431
        23                         -0.0367177              -0.9991
        24                         -0.0208858              -0.5683
        25                         -0.0070770              -0.1926
        26                          0.0347503               0.9456
        27                          0.0641822               1.7465
       ...                                ...                  ...
        30                          0.1139408               3.1005
      -------------------------------------------------------------
                  HL-Gap            0.3407940 Eh            9.2735 eV

     #   Z          covCN         q      C6AA      α(0)
     1   8 O        1.654    -0.445    21.733     6.293
     2   6 C        3.673     0.058    19.825     6.381
     3   6 C        3.803    -0.091    22.233     6.713
     4   6 C        3.731    -0.027    21.155     6.565
     5   7 N        3.482    -0.159    24.437     7.342
     6   1 H        0.805     0.320     0.663     1.279
     7   1 H        0.924     0.054     2.275     2.359
     8   1 H        0.924     0.068     2.104     2.268
     9   1 H        0.925     0.097     1.808     2.103
    10   1 H        0.924     0.085     1.924     2.169
    11   1 H        0.924     0.105     1.741     2.064
    12   1 H        0.924     0.102     1.770     2.080
    13   1 H        0.856     0.318     0.663     1.276
    14   1 H        0.859     0.255     0.863     1.456
    15   1 H        0.859     0.259     0.849     1.443

Wiberg/Mayer (AO) data.
largest (>0.10) Wiberg bond orders for each atom

     #   Z sym  total        # sym  WBO       # sym  WBO       # sym  WBO
 ---------------------------------------------------------------------------
     1   8 O    2.024 --     2 C    0.973     6 H    0.877
     2   6 C    3.940 --     3 C    1.009     1 O    0.973     8 H    0.971
                             7 H    0.970
     3   6 C    3.984 --     4 C    1.013     2 C    1.009    10 H    0.968
                             9 H    0.962
     4   6 C    3.914 --     3 C    1.013    12 H    0.969    11 H    0.967
                             5 N    0.946
     5   7 N    3.648 --     4 C    0.946    14 H    0.921    15 H    0.918
                            13 H    0.795
     6   1 H    0.897 --     1 O    0.877
     7   1 H    0.997 --     2 C    0.970
     8   1 H    0.995 --     2 C    0.971
     9   1 H    0.990 --     3 C    0.962
    10   1 H    0.993 --     3 C    0.968
    11   1 H    0.989 --     4 C    0.967
    12   1 H    0.990 --     4 C    0.969
    13   1 H    0.899 --     5 N    0.795
    14   1 H    0.935 --     5 N    0.921
    15   1 H    0.933 --     5 N    0.918
 ---------------------------------------------------------------------------

molecular dipole:
                 x           y           z       tot (Debye)
 q only:        8.300      -0.651      -1.668
   full:        8.300      -0.799      -1.518      21.541

           -------------------------------------------------
          | TOTAL ENERGY              -18.079296960136 Eh   |
          | GRADIENT NORM               0.000431636417 Eh/α |
          | HOMO-LUMO GAP               9.273475706748 eV   |
           -------------------------------------------------

 * finished run on 2023/01/23 at 13:40:19.798
