   * xtb version 6.5.1 (fef0646) compiled by 'conda@b96dff2e9fd6' on 2023-01-04
          program call               : xtb init.xyz --opt -c 1 -u 0 -P 16 --alpb water

   ID    Z sym.   atoms
    1    7 N      1
    2    6 C      2-7
    3    1 H      8-23

      * Solvation model:               ALPB
        Solvent                        water
        Solvent mass                       1.8000E+01 g/mol
          :  Hamiltonian                  GFN2-xTB          :
 * total energy  :   -23.6072661 Eh     change       -0.1154987E-10 Eh
 * total energy  :   -23.6083699 Eh     change       -0.1103816E-02 Eh
 * total energy  :   -23.6084711 Eh     change       -0.1011583E-03 Eh
 * total energy  :   -23.6084854 Eh     change       -0.1438279E-04 Eh
 * total energy  :   -23.6084885 Eh     change       -0.3076386E-05 Eh
   *** GEOMETRY OPTIMIZATION CONVERGED AFTER 5 ITERATIONS ***

 final structure:
================
23
 xtb: 6.5.1 (fef0646)
N            0.93112927889411       -0.04762388361666        0.07392252688846
C            2.41462816977893       -0.03700237866475        0.08679759043838
C            2.93741578278954        1.18888724359276        0.82713680098627
C            4.46562352014459        1.21056561519563        0.83906820934524
C            5.00309380069766        2.43391315044175        1.57917236153675
C            6.52955230284569        2.46804348126520        1.59763119558210
C            7.05693031322069        3.69177935787848        2.33821435068121
H            0.57619700592217       -0.87288288138341       -0.42236388184468
H            0.57713799002523        0.79643571215820       -0.39171675521985
H            0.57124495775841       -0.05926847970141        1.03552894795661
H            2.78198667070516       -0.02967135878702       -0.93919768162145
H            2.77526793770315       -0.94181178261839        0.57559044576047
H            2.58403077074213        1.18692529351853        1.85900239851036
H            2.58326289217123        2.10126446314892        0.34574498785656
H            4.84494967476987        1.22159559855053       -0.18452372290514
H            4.84634101522401        0.30903530073259        1.32280007557134
H            4.63825699418710        2.43091742542654        2.60881395987971
H            4.63611055119951        3.34455412283096        1.10030067849853
H            6.90752403155821        2.47837987351371        0.57268925937510
H            6.90975578576867        1.56489226142413        2.08055922522228
H            6.71098580595806        4.60700338465084        1.86227014250077
H            8.14451147873541        3.69999863796175        2.34139951555020
H            6.71348326920048        3.69305984248112        3.37062936945079

          :  Hamiltonian                  GFN2-xTB          :
         :: total energy             -23.608488517744 Eh    ::
         :: gradient norm              0.000552832467 Eh/a0 ::
         :: HOMO-LUMO gap              9.976438058396 eV    ::
         :: SCC energy               -23.953871612918 Eh    ::
         :: -> dispersion             -0.011520184433 Eh    ::
         :: -> Gsolv                  -0.117681452533 Eh    ::
         :: repulsion energy           0.345440437331 Eh    ::

    * Orbital Energies and Occupations

         #    Occupation            Energy/Eh            Energy/eV
      -------------------------------------------------------------
         1        2.0000           -0.6924195             -18.8417
       ...           ...                  ...                  ...
        10        2.0000           -0.5429353             -14.7740
        11        2.0000           -0.5239358             -14.2570
        12        2.0000           -0.5039587             -13.7134
        13        2.0000           -0.4962467             -13.5036
        14        2.0000           -0.4843239             -13.1791
        15        2.0000           -0.4760052             -12.9528
        16        2.0000           -0.4722948             -12.8518
        17        2.0000           -0.4508493             -12.2682
        18        2.0000           -0.4488829             -12.2147
        19        2.0000           -0.4330713             -11.7845
        20        2.0000           -0.4291010             -11.6764
        21        2.0000           -0.4274566             -11.6317
        22        2.0000           -0.4182788             -11.3819 (HOMO)
        23                         -0.0516515              -1.4055 (LUMO)
        24                          0.0435978               1.1864
        25                          0.0723403               1.9685
        26                          0.0971983               2.6449
        27                          0.1040567               2.8315
        28                          0.1166594               3.1745
        29                          0.1294298               3.5220
        30                          0.1315846               3.5806
        31                          0.1471083               4.0030
        32                          0.1675401               4.5590
        33                          0.1742656               4.7420
       ...                                ...                  ...
        44                          0.3182547               8.6602
      -------------------------------------------------------------
                  HL-Gap            0.3666274 Eh            9.9764 eV

     #   Z          covCN         q      C6AA      α(0)
     1   7 N        3.485    -0.162    24.491     7.350
     2   6 C        3.732    -0.038    21.344     6.594
     3   6 C        3.803    -0.086    22.134     6.698
     4   6 C        3.804    -0.071    21.851     6.655
     5   6 C        3.803    -0.068    21.797     6.647
     6   6 C        3.801    -0.060    21.650     6.625
     7   6 C        3.752    -0.110    22.667     6.789
     8   1 H        0.859     0.316     0.667     1.279
     9   1 H        0.859     0.309     0.688     1.299
    10   1 H        0.859     0.309     0.688     1.299
    11   1 H        0.925     0.107     1.724     2.053
    12   1 H        0.925     0.107     1.723     2.053
    13   1 H        0.924     0.066     2.129     2.282
    14   1 H        0.924     0.066     2.127     2.281
    15   1 H        0.924     0.042     2.420     2.433
    16   1 H        0.924     0.042     2.420     2.433
    17   1 H        0.924     0.037     2.492     2.469
    18   1 H        0.924     0.037     2.491     2.468
    19   1 H        0.924     0.030     2.586     2.515
    20   1 H        0.924     0.030     2.586     2.515
    21   1 H        0.925     0.034     2.527     2.486
    22   1 H        0.925     0.028     2.615     2.529
    23   1 H        0.925     0.034     2.527     2.486

Wiberg/Mayer (AO) data.
largest (>0.10) Wiberg bond orders for each atom

     #   Z sym  total        # sym  WBO       # sym  WBO       # sym  WBO
 ---------------------------------------------------------------------------
     1   7 N    3.653 --     2 C    0.966     9 H    0.890    10 H    0.890
                             8 H    0.887
     2   6 C    3.927 --     3 C    1.011    12 H    0.967    11 H    0.967
                             1 N    0.966
     3   6 C    3.990 --     2 C    1.011     4 C    1.004    13 H    0.973
                            14 H    0.973
     4   6 C    3.996 --     5 C    1.007     3 C    1.004    16 H    0.977
                            15 H    0.977
     5   6 C    3.996 --     6 C    1.008     4 C    1.007    17 H    0.977
                            18 H    0.977
     6   6 C    3.997 --     7 C    1.019     5 C    1.008    20 H    0.979
                            19 H    0.979
     7   6 C    3.996 --     6 C    1.019    23 H    0.988    21 H    0.988
                            22 H    0.988
     8   1 H    0.900 --     1 N    0.887
     9   1 H    0.905 --     1 N    0.890
    10   1 H    0.905 --     1 N    0.890
    11   1 H    0.989 --     2 C    0.967
    12   1 H    0.989 --     2 C    0.967
    13   1 H    0.996 --     3 C    0.973
    14   1 H    0.996 --     3 C    0.973
    15   1 H    0.998 --     4 C    0.977
    16   1 H    0.998 --     4 C    0.977
    17   1 H    0.999 --     5 C    0.977
    18   1 H    0.999 --     5 C    0.977
    19   1 H    0.999 --     6 C    0.979
    20   1 H    0.999 --     6 C    0.979
    21   1 H    0.999 --     7 C    0.988
    22   1 H    0.999 --     7 C    0.988
    23   1 H    0.999 --     7 C    0.988
 ---------------------------------------------------------------------------

molecular dipole:
                 x           y           z       tot (Debye)
 q only:        1.904      -0.087       0.142
   full:        1.895      -0.036       0.173       4.838

           -------------------------------------------------
          | TOTAL ENERGY              -23.608488517744 Eh   |
          | GRADIENT NORM               0.000552832467 Eh/α |
          | HOMO-LUMO GAP               9.976438058396 eV   |
           -------------------------------------------------

 * finished run on 2023/01/24 at 14:57:51.263
