   * xtb version 6.5.1 (fef0646) compiled by 'conda@b96dff2e9fd6' on 2023-01-04
          program call               : xtb init.xyz --opt -c 0 -u 0 -P 16

   ID    Z sym.   atoms
    1    7 N      1
    2    6 C      2-7
    3   17 Cl     8
    4    1 H      9-16

          :  Hamiltonian                  GFN2-xTB          :
 * total energy  :   -24.3559007 Eh     change       -0.5970477E-09 Eh
 * total energy  :   -24.3632187 Eh     change       -0.7318011E-02 Eh
 * total energy  :   -24.3690563 Eh     change       -0.5837647E-02 Eh
 * total energy  :   -24.3732140 Eh     change       -0.4157650E-02 Eh
 * total energy  :   -24.3775047 Eh     change       -0.4290770E-02 Eh
 * total energy  :   -24.3792485 Eh     change       -0.1743795E-02 Eh
 * total energy  :   -24.3796349 Eh     change       -0.3863190E-03 Eh
 * total energy  :   -24.3800651 Eh     change       -0.4301938E-03 Eh
 * total energy  :   -24.3801725 Eh     change       -0.1074276E-03 Eh
 * total energy  :   -24.3802576 Eh     change       -0.8510590E-04 Eh
 * total energy  :   -24.3806839 Eh     change       -0.6365089E-04 Eh
 * total energy  :   -24.3807214 Eh     change       -0.3755238E-04 Eh
 * total energy  :   -24.3807457 Eh     change       -0.2422684E-04 Eh
 * total energy  :   -24.3807601 Eh     change       -0.1448223E-04 Eh
 * total energy  :   -24.3807849 Eh     change       -0.2475054E-04 Eh
 * total energy  :   -24.3808002 Eh     change       -0.1525579E-04 Eh
 * total energy  :   -24.3808144 Eh     change       -0.1426981E-04 Eh
 * total energy  :   -24.3808248 Eh     change       -0.1038212E-04 Eh
 * total energy  :   -24.3808295 Eh     change       -0.4674775E-05 Eh
   *** GEOMETRY OPTIMIZATION CONVERGED AFTER 24 ITERATIONS ***

 final structure:
================
16
 xtb: 6.5.1 (fef0646)
N            2.11356186868596        0.00104679727159        0.35536272205411
C            0.70705295817183       -0.00597021587300        0.33245278822458
C            0.01354689676298       -1.18656496068700        0.09135314544254
C           -1.36566215250711       -1.17386922140247       -0.00042688749882
C           -2.06598528075258        0.01135771661591        0.14733418498401
C           -1.37700624681480        1.18860118838724        0.38636602506503
C            0.00183187416284        1.18351339256558        0.47972501386609
Cl           3.21312530815927        0.61536667821338       -2.36990858576995
H            2.52387431772134       -0.89601887151514        0.57907206299059
H            2.68186461253159        0.33680616063208       -1.17653068595954
H            2.51043752546598        0.75249691716901        0.90346771367681
H            0.56036233337682       -2.11087549940083       -0.02732825664559
H           -1.89605506975557       -2.09563558113687       -0.18740023096238
H           -3.14282011931874        0.01791277301102        0.07586014949370
H           -1.91559928091017        2.11732794293059        0.50119414185179
H            0.54077045502001        2.10186478322165        0.66261669918749

          :  Hamiltonian                  GFN2-xTB          :
         :: total energy             -24.380829481499 Eh    ::
         :: gradient norm              0.000605854336 Eh/a0 ::
         :: HOMO-LUMO gap              4.217032366736 eV    ::
         :: SCC energy               -24.735990446604 Eh    ::
         :: -> dispersion             -0.012113020503 Eh    ::
         :: repulsion energy           0.355112531522 Eh    ::

    * Orbital Energies and Occupations

         #    Occupation            Energy/Eh            Energy/eV
      -------------------------------------------------------------
         1        2.0000           -1.0305990             -28.0440
       ...           ...                  ...                  ...
        10        2.0000           -0.5265628             -14.3285
        11        2.0000           -0.5169522             -14.0670
        12        2.0000           -0.4915999             -13.3771
        13        2.0000           -0.4901138             -13.3367
        14        2.0000           -0.4838530             -13.1663
        15        2.0000           -0.4835407             -13.1578
        16        2.0000           -0.4465633             -12.1516
        17        2.0000           -0.4376401             -11.9088
        18        2.0000           -0.4292342             -11.6801
        19        2.0000           -0.4101855             -11.1617
        20        2.0000           -0.4073305             -11.0840
        21        2.0000           -0.4072379             -11.0815
        22        2.0000           -0.3832028             -10.4275 (HOMO)
        23                         -0.2282297              -6.2104 (LUMO)
        24                         -0.2212625              -6.0209
        25                         -0.0960245              -2.6130
        26                         -0.0642279              -1.7477
        27                          0.0236633               0.6439
        28                          0.0509166               1.3855
        29                          0.0510315               1.3886
        30                          0.0570403               1.5521
        31                          0.0570424               1.5522
        32                          0.1093448               2.9754
        33                          0.1374866               3.7412
       ...                                ...                  ...
        45                          0.6615455              18.0016
      -------------------------------------------------------------
                  HL-Gap            0.1549731 Eh            4.2170 eV

     #   Z          covCN         q      C6AA      α(0)
     1   7 N        2.648    -0.286    27.392     7.773
     2   6 C        2.902     0.073    26.371     8.420
     3   6 C        2.923    -0.054    29.345     8.883
     4   6 C        2.920    -0.027    28.678     8.782
     5   6 C        2.919    -0.038    28.953     8.824
     6   6 C        2.920    -0.027    28.675     8.781
     7   6 C        2.923    -0.054    29.342     8.883
     8  17 Cl       0.841    -0.439   113.484    16.297
     9   1 H        0.860     0.174     1.246     1.749
    10   1 H        0.851     0.334     0.621     1.235
    11   1 H        0.860     0.175     1.242     1.746
    12   1 H        0.926     0.032     2.556     2.500
    13   1 H        0.926     0.035     2.514     2.479
    14   1 H        0.926     0.033     2.540     2.492
    15   1 H        0.926     0.035     2.510     2.478
    16   1 H        0.926     0.033     2.540     2.492

Wiberg/Mayer (AO) data.
largest (>0.10) Wiberg bond orders for each atom

     #   Z sym  total        # sym  WBO       # sym  WBO       # sym  WBO
 ---------------------------------------------------------------------------
     1   7 N    3.304 --     2 C    1.080     9 H    0.950    11 H    0.950
                            10 H    0.140
     2   6 C    3.966 --     3 C    1.377     7 C    1.376     1 N    1.080
     3   6 C    3.989 --     4 C    1.451     2 C    1.377    12 H    0.968
                             6 C    0.108
     4   6 C    3.992 --     3 C    1.451     5 C    1.435    13 H    0.971
                             7 C    0.108
     5   6 C    3.990 --     4 C    1.435     6 C    1.433    14 H    0.971
     6   6 C    3.992 --     7 C    1.453     5 C    1.433    15 H    0.971
                             3 C    0.108
     7   6 C    3.989 --     6 C    1.453     2 C    1.376    16 H    0.968
                             4 C    0.108
     8  17 Cl   0.807 --    10 H    0.743
     9   1 H    0.969 --     1 N    0.950
    10   1 H    0.888 --     8 Cl   0.743     1 N    0.140
    11   1 H    0.969 --     1 N    0.950
    12   1 H    0.999 --     3 C    0.968
    13   1 H    0.998 --     4 C    0.971
    14   1 H    0.999 --     5 C    0.971
    15   1 H    0.998 --     6 C    0.971
    16   1 H    0.999 --     7 C    0.968
 ---------------------------------------------------------------------------

molecular dipole:
                 x           y           z       tot (Debye)
 q only:       -0.452      -0.338       1.543
   full:       -0.249      -0.301       1.395       3.683

           -------------------------------------------------
          | TOTAL ENERGY              -24.380829481499 Eh   |
          | GRADIENT NORM               0.000605854336 Eh/α |
          | HOMO-LUMO GAP               4.217032366736 eV   |
           -------------------------------------------------

 * finished run on 2023/01/23 at 13:41:09.273
