   * xtb version 6.5.1 (fef0646) compiled by 'conda@b96dff2e9fd6' on 2023-01-04
          program call               : xtb init.xyz --opt -c 1 -u 0 -P 16 --alpb water

   ID    Z sym.   atoms
    1    7 N      1
    2    6 C      2-5
    3    1 H      6-17

      * Solvation model:               ALPB
        Solvent                        water
        Solvent mass                       1.8000E+01 g/mol
          :  Hamiltonian                  GFN2-xTB          :
 * total energy  :   -17.2800485 Eh     change       -0.8963497E-11 Eh
 * total energy  :   -17.2812676 Eh     change       -0.1219111E-02 Eh
 * total energy  :   -17.2814362 Eh     change       -0.1685998E-03 Eh
 * total energy  :   -17.2814656 Eh     change       -0.2941278E-04 Eh
 * total energy  :   -17.2814789 Eh     change       -0.1322090E-04 Eh
 * total energy  :   -17.2814885 Eh     change       -0.9626098E-05 Eh
 * total energy  :   -17.2814927 Eh     change       -0.4238796E-05 Eh
   *** GEOMETRY OPTIMIZATION CONVERGED AFTER 7 ITERATIONS ***

 final structure:
================
17
 xtb: 6.5.1 (fef0646)
N            0.91993322352112        0.08227889528554        0.13165309720057
C            2.40033685382154        0.05481441507280        0.05333000815249
C            2.90410345585464       -1.09847917326301       -0.81830381534691
C            2.43113007411054       -0.95170412442153       -2.26437636146586
C            4.43039426657984       -1.12224487523700       -0.75886921203332
H            0.60686887920570        0.83824804702269        0.75038297347788
H            0.56683616284946       -0.81109552643652        0.49413288733572
H            0.52488525850578        0.23524469664923       -0.80313197046984
H            2.80702351791951       -0.05052737444970        1.05892614305017
H            2.75141425191533        0.99900632188641       -0.36392294212700
H            2.53435610444855       -2.04735766527953       -0.41785992936885
H            2.70898714682141        0.02098942023259       -2.66386193194886
H            1.35796749676710       -1.08899660633911       -2.36485899206572
H            2.90593925788106       -1.70695173195677       -2.88582582114626
H            4.84569720759042       -0.20153631795698       -1.16180284749909
H            4.82226400759392       -1.95032405932773       -1.34350335390183
H            4.78112283461407       -1.23888434148139        0.26347206815674

          :  Hamiltonian                  GFN2-xTB          :
         :: total energy             -17.281492728239 Eh    ::
         :: gradient norm              0.000315125639 Eh/a0 ::
         :: HOMO-LUMO gap             10.422075829453 eV    ::
         :: SCC energy               -17.534559888228 Eh    ::
         :: -> dispersion             -0.007804009415 Eh    ::
         :: -> Gsolv                  -0.114450998174 Eh    ::
         :: repulsion energy           0.253044812947 Eh    ::

    * Orbital Energies and Occupations

         #    Occupation            Energy/Eh            Energy/eV
      -------------------------------------------------------------
         1        2.0000           -0.6914818             -18.8162
       ...           ...                  ...                  ...
         4        2.0000           -0.5974321             -16.2570
         5        2.0000           -0.5911465             -16.0859
         6        2.0000           -0.5820315             -15.8379
         7        2.0000           -0.5594420             -15.2232
         8        2.0000           -0.5457762             -14.8513
         9        2.0000           -0.5148533             -14.0099
        10        2.0000           -0.4971135             -13.5271
        11        2.0000           -0.4818987             -13.1131
        12        2.0000           -0.4662470             -12.6872
        13        2.0000           -0.4585371             -12.4774
        14        2.0000           -0.4451384             -12.1128
        15        2.0000           -0.4404968             -11.9865
        16        2.0000           -0.4322589             -11.7624 (HOMO)
        17                         -0.0492546              -1.3403 (LUMO)
        18                          0.0481964               1.3115
        19                          0.0744520               2.0259
        20                          0.0904409               2.4610
        21                          0.1070077               2.9118
        22                          0.1152545               3.1362
        23                          0.1526927               4.1550
        24                          0.1673758               4.5545
        25                          0.1777912               4.8379
        26                          0.2115639               5.7569
        27                          0.2193456               5.9687
       ...                                ...                  ...
        32                          0.2964780               8.0676
      -------------------------------------------------------------
                  HL-Gap            0.3830042 Eh           10.4221 eV

     #   Z          covCN         q      C6AA      α(0)
     1   7 N        3.484    -0.157    24.382     7.334
     2   6 C        3.737    -0.044    21.456     6.610
     3   6 C        3.849    -0.019    20.875     6.499
     4   6 C        3.755    -0.136    23.168     6.863
     5   6 C        3.758    -0.128    22.999     6.837
     6   1 H        0.859     0.317     0.666     1.279
     7   1 H        0.859     0.307     0.694     1.305
     8   1 H        0.859     0.302     0.707     1.317
     9   1 H        0.925     0.106     1.728     2.056
    10   1 H        0.924     0.108     1.712     2.046
    11   1 H        0.924     0.059     2.211     2.325
    12   1 H        0.925     0.053     2.289     2.366
    13   1 H        0.925     0.057     2.239     2.340
    14   1 H        0.925     0.041     2.436     2.441
    15   1 H        0.925     0.047     2.354     2.399
    16   1 H        0.925     0.042     2.425     2.435
    17   1 H        0.925     0.045     2.378     2.411

Wiberg/Mayer (AO) data.
largest (>0.10) Wiberg bond orders for each atom

     #   Z sym  total        # sym  WBO       # sym  WBO       # sym  WBO
 ---------------------------------------------------------------------------
     1   7 N    3.656 --     2 C    0.966     7 H    0.891     8 H    0.890
                             6 H    0.887
     2   6 C    3.926 --     3 C    0.998     9 H    0.966     1 N    0.966
                            10 H    0.965
     3   6 C    3.993 --     4 C    1.009     5 C    1.006     2 C    0.998
                            11 H    0.965
     4   6 C    3.992 --     3 C    1.009    12 H    0.985    14 H    0.984
                            13 H    0.981
     5   6 C    3.993 --     3 C    1.006    15 H    0.986    16 H    0.985
                            17 H    0.985
     6   1 H    0.900 --     1 N    0.887
     7   1 H    0.906 --     1 N    0.891
     8   1 H    0.909 --     1 N    0.890
     9   1 H    0.989 --     2 C    0.966
    10   1 H    0.988 --     2 C    0.965
    11   1 H    0.997 --     3 C    0.965
    12   1 H    0.997 --     4 C    0.985
    13   1 H    0.997 --     4 C    0.981
    14   1 H    0.998 --     4 C    0.984
    15   1 H    0.998 --     5 C    0.986
    16   1 H    0.998 --     5 C    0.985
    17   1 H    0.998 --     5 C    0.985
 ---------------------------------------------------------------------------

molecular dipole:
                 x           y           z       tot (Debye)
 q only:        1.996       0.131       0.189
   full:        1.928       0.104       0.160       4.924

           -------------------------------------------------
          | TOTAL ENERGY              -17.281492728239 Eh   |
          | GRADIENT NORM               0.000315125639 Eh/α |
          | HOMO-LUMO GAP              10.422075829453 eV   |
           -------------------------------------------------

 * finished run on 2023/01/24 at 14:55:54.254
