   * xtb version 6.5.1 (fef0646) compiled by 'conda@b96dff2e9fd6' on 2023-01-04
          program call               : xtb init.xyz --opt -c 0 -u 0 -P 16

   ID    Z sym.   atoms
    1    7 N      1
    2    6 C      2-7, 9-11
    3    8 O      8
    4   17 Cl     12
    5    1 H      13-26

          :  Hamiltonian                  GFN2-xTB          :
 * total energy  :   -37.9149719 Eh     change       -0.4770371E-09 Eh
 * total energy  :   -37.9227402 Eh     change       -0.7768295E-02 Eh
 * total energy  :   -37.9273630 Eh     change       -0.4622778E-02 Eh
 * total energy  :   -37.9300013 Eh     change       -0.2638336E-02 Eh
 * total energy  :   -37.9325645 Eh     change       -0.2563174E-02 Eh
 * total energy  :   -37.9342332 Eh     change       -0.1668725E-02 Eh
 * total energy  :   -37.9348320 Eh     change       -0.5987177E-03 Eh
 * total energy  :   -37.9351599 Eh     change       -0.3279257E-03 Eh
 * total energy  :   -37.9352678 Eh     change       -0.1079554E-03 Eh
 * total energy  :   -37.9353092 Eh     change       -0.4139660E-04 Eh
 * total energy  :   -37.9354594 Eh     change       -0.1577573E-04 Eh
 * total energy  :   -37.9354659 Eh     change       -0.6467618E-05 Eh
 * total energy  :   -37.9354748 Eh     change       -0.8879577E-05 Eh
 * total energy  :   -37.9354879 Eh     change       -0.1307652E-04 Eh
 * total energy  :   -37.9355035 Eh     change       -0.1560194E-04 Eh
 * total energy  :   -37.9355146 Eh     change       -0.1118704E-04 Eh
 * total energy  :   -37.9355217 Eh     change       -0.7073153E-05 Eh
 * total energy  :   -37.9355281 Eh     change       -0.6344533E-05 Eh
 * total energy  :   -37.9355329 Eh     change       -0.4878678E-05 Eh
   *** GEOMETRY OPTIMIZATION CONVERGED AFTER 22 ITERATIONS ***

 final structure:
================
26
 xtb: 6.5.1 (fef0646)
N            1.03528101486435       -1.09425813456474        0.40556931760332
C            2.48662464806557       -1.23061377273343        0.29166930034567
C            2.92718567920726       -0.97388902544915       -1.15235594411410
C            4.42674488496867       -0.97244905951691       -1.24403193663031
C            5.13071618786884       -2.13837176255137       -1.49697285130623
C            6.51542300860681       -2.15203072620812       -1.53999080842040
C            7.22520505646258       -0.97750241744547       -1.32301000625099
O            8.58375523894033       -0.86872896411759       -1.33756094502707
C            9.34774375016394       -2.02269156309244       -1.58491466084558
C            6.52244191705005        0.20142350766644       -1.06809287516205
C            5.14557362624801        0.19895164150044       -1.02818581596886
Cl           0.26025453891096        1.61543443525197       -0.40324439419903
H            0.72455463454860       -1.24651794146539        1.35883319805513
H            0.56239473421117       -1.75472542327167       -0.20303255485012
H            0.62600426888804        0.34693176903427       -0.02337001673100
H            2.83840942325020       -2.22221090933979        0.61034405086097
H            2.94157784838209       -0.48354589815026        0.94591306657399
H            2.52911404471953       -0.00929534389818       -1.46682696841980
H            2.51082020729233       -1.74868599722655       -1.79967158840590
H            4.59418582463094       -3.06061792034955       -1.67110180435944
H            7.02403532136988       -3.08128845271030       -1.74382632474753
H           10.38768559180295       -1.70223352426180       -1.54483972973981
H            9.13716910443536       -2.44123144713689       -2.57468360824906
H            9.17717413659604       -2.78994755543486       -0.82227868862511
H            7.08505718796455        1.10704002707128       -0.90567145284219
H            4.61480812055086        1.11873445839987       -0.83222595854438

          :  Hamiltonian                  GFN2-xTB          :
         :: total energy             -37.935532944536 Eh    ::
         :: gradient norm              0.000349657288 Eh/a0 ::
         :: HOMO-LUMO gap              4.164364366030 eV    ::
         :: SCC energy               -38.425950228042 Eh    ::
         :: -> dispersion             -0.021022088412 Eh    ::
         :: repulsion energy           0.490464225826 Eh    ::

    * Orbital Energies and Occupations

         #    Occupation            Energy/Eh            Energy/eV
      -------------------------------------------------------------
         1        2.0000           -1.0166496             -27.6644
       ...           ...                  ...                  ...
        22        2.0000           -0.4814653             -13.1013
        23        2.0000           -0.4781050             -13.0099
        24        2.0000           -0.4736130             -12.8877
        25        2.0000           -0.4646270             -12.6431
        26        2.0000           -0.4497421             -12.2381
        27        2.0000           -0.4433494             -12.0642
        28        2.0000           -0.4379250             -11.9165
        29        2.0000           -0.4200000             -11.4288
        30        2.0000           -0.4060168             -11.0483
        31        2.0000           -0.3992426             -10.8639
        32        2.0000           -0.3937326             -10.7140
        33        2.0000           -0.3936628             -10.7121
        34        2.0000           -0.3768527             -10.2547 (HOMO)
        35                         -0.2238151              -6.0903 (LUMO)
        36                         -0.2146803              -5.8417
        37                         -0.0922077              -2.5091
        38                         -0.0559446              -1.5223
        39                          0.0170971               0.4652
        40                          0.0331865               0.9031
        41                          0.0674270               1.8348
        42                          0.0679380               1.8487
        43                          0.0734316               1.9982
        44                          0.0736604               2.0044
        45                          0.0934480               2.5428
       ...                                ...                  ...
        67                          0.6667448              18.1430
      -------------------------------------------------------------
                  HL-Gap            0.1530376 Eh            4.1644 eV

     #   Z          covCN         q      C6AA      α(0)
     1   7 N        2.696    -0.304    27.829     7.835
     2   6 C        3.734     0.011    20.480     6.459
     3   6 C        3.809    -0.078    21.991     6.675
     4   6 C        2.970     0.000    28.021     8.683
     5   6 C        2.926    -0.041    29.028     8.836
     6   6 C        2.916    -0.069    29.707     8.938
     7   6 C        2.866     0.141    24.932     8.185
     8   8 O        1.705    -0.271    18.487     5.805
     9   6 C        3.644     0.039    20.258     6.470
    10   6 C        2.920    -0.055    29.363     8.886
    11   6 C        2.925    -0.039    28.966     8.826
    12  17 Cl       0.837    -0.487   115.207    16.420
    13   1 H        0.860     0.166     1.298     1.785
    14   1 H        0.860     0.168     1.288     1.778
    15   1 H        0.902     0.333     0.621     1.233
    16   1 H        0.923     0.025     2.658     2.549
    17   1 H        0.924     0.054     2.272     2.357
    18   1 H        0.925     0.069     2.095     2.264
    19   1 H        0.924     0.042     2.422     2.434
    20   1 H        0.926     0.030     2.579     2.511
    21   1 H        0.926     0.034     2.537     2.491
    22   1 H        0.925     0.061     2.186     2.312
    23   1 H        0.924     0.039     2.459     2.452
    24   1 H        0.924     0.038     2.469     2.457
    25   1 H        0.926     0.050     2.324     2.384
    26   1 H        0.926     0.045     2.383     2.414

Wiberg/Mayer (AO) data.
largest (>0.10) Wiberg bond orders for each atom

     #   Z sym  total        # sym  WBO       # sym  WBO       # sym  WBO
 ---------------------------------------------------------------------------
     1   7 N    3.240 --     2 C    1.004    13 H    0.959    14 H    0.958
                            15 H    0.208
     2   6 C    3.972 --     1 N    1.004     3 C    0.990    17 H    0.974
                            16 H    0.973
     3   6 C    3.993 --     4 C    1.008     2 C    0.990    19 H    0.973
                            18 H    0.968
     4   6 C    3.988 --     5 C    1.425    11 C    1.389     3 C    1.008
     5   6 C    3.991 --     6 C    1.434     4 C    1.425    20 H    0.970
                            10 C    0.108
     6   6 C    3.988 --     5 C    1.434     7 C    1.379    21 H    0.966
                            11 C    0.103
     7   6 C    3.934 --     6 C    1.379    10 C    1.346     8 O    1.059
     8   8 O    2.228 --     7 C    1.059     9 C    0.987
     9   6 C    3.948 --     8 O    0.987    22 H    0.980    24 H    0.977
                            23 H    0.977
    10   6 C    3.988 --    11 C    1.477     7 C    1.346    25 H    0.968
                             5 C    0.108
    11   6 C    3.991 --    10 C    1.477     4 C    1.389    26 H    0.968
                             6 C    0.103
    12  17 Cl   0.766 --    15 H    0.677
    13   1 H    0.972 --     1 N    0.959
    14   1 H    0.972 --     1 N    0.958
    15   1 H    0.889 --    12 Cl   0.677     1 N    0.208
    16   1 H    0.999 --     2 C    0.973
    17   1 H    0.997 --     2 C    0.974
    18   1 H    0.995 --     3 C    0.968
    19   1 H    0.998 --     3 C    0.973
    20   1 H    0.999 --     5 C    0.970
    21   1 H    0.999 --     6 C    0.966
    22   1 H    0.996 --     9 C    0.980
    23   1 H    0.998 --     9 C    0.977
    24   1 H    0.998 --     9 C    0.977
    25   1 H    0.997 --    10 C    0.968
    26   1 H    0.997 --    11 C    0.968
 ---------------------------------------------------------------------------

molecular dipole:
                 x           y           z       tot (Debye)
 q only:        0.774      -2.068       0.379
   full:        0.624      -2.180       0.392       5.849

           -------------------------------------------------
          | TOTAL ENERGY              -37.935532944536 Eh   |
          | GRADIENT NORM               0.000349657288 Eh/α |
          | HOMO-LUMO GAP               4.164364366030 eV   |
           -------------------------------------------------

 * finished run on 2023/01/23 at 14:08:03.626
