   * xtb version 6.5.1 (fef0646) compiled by 'conda@b96dff2e9fd6' on 2023-01-04
          program call               : xtb init.xyz --opt -c 0 -u 0 -P 16 --input xtb.inp

   ID    Z sym.   atoms
    1    7 N      1
    2    6 C      2-8
    3   17 Cl     9
    4    1 H      10-19

          :  Hamiltonian                  GFN2-xTB          :
 * total energy  :   -27.4923526 Eh     change       -0.3149552E-09 Eh
 * total energy  :   -27.5156795 Eh     change       -0.2332692E-01 Eh
 * total energy  :   -27.5160766 Eh     change       -0.3971054E-03 Eh
 * total energy  :   -27.5246788 Eh     change       -0.8602180E-02 Eh
 * total energy  :   -27.5269026 Eh     change       -0.2223856E-02 Eh
 * total energy  :   -27.5301182 Eh     change       -0.3215581E-02 Eh
 * total energy  :   -27.5324420 Eh     change       -0.2323759E-02 Eh
 * total energy  :   -27.5335015 Eh     change       -0.1059539E-02 Eh
 * total energy  :   -27.5339739 Eh     change       -0.4723850E-03 Eh
 * total energy  :   -27.5341828 Eh     change       -0.2089266E-03 Eh
 * total energy  :   -27.5356870 Eh     change       -0.4316635E-04 Eh
 * total energy  :   -27.5357055 Eh     change       -0.1853502E-04 Eh
 * total energy  :   -27.5357290 Eh     change       -0.2355091E-04 Eh
 * total energy  :   -27.5357548 Eh     change       -0.2571595E-04 Eh
 * total energy  :   -27.5357795 Eh     change       -0.2472463E-04 Eh
 * total energy  :   -27.5358004 Eh     change       -0.2095373E-04 Eh
 * total energy  :   -27.5358073 Eh     change       -0.6876985E-05 Eh
 * total energy  :   -27.5358164 Eh     change       -0.9075358E-05 Eh
 * total energy  :   -27.5358201 Eh     change       -0.3754968E-05 Eh
   *** GEOMETRY OPTIMIZATION CONVERGED AFTER 47 ITERATIONS ***

 final structure:
================
19
 xtb: 6.5.1 (fef0646)
N            3.12606941518664       -0.85745294716996       -0.50995319990774
C            2.32488019092875        0.30135211986599       -0.09237165084280
C            2.81305709833551        0.82121462252266        1.23384361583721
C            3.44159759783703        2.05592202182654        1.31978998289739
C            3.90581691409941        2.52553934079351        2.53671080417160
C            3.75091696359074        1.75942303593847        3.67842330132780
C            3.12904039180410        0.52403545143289        3.59876767376679
C            2.66058816565633        0.05656878837612        2.38445294584364
Cl           2.44854599581004       -3.32506299012899        0.91576513707220
H            2.91769307826734       -1.11183944631957       -1.46975638999969
H            2.77968622652879       -2.14178325902954        0.29546574982482
H            4.11712044698334       -0.65231035575066       -0.43262003858316
H            1.28901865823278       -0.03856934314929       -0.00478634611982
H            2.36215548923992        1.10930336430392       -0.83589467521166
H            3.56497188885761        2.65939097794909        0.43076538415541
H            4.38947799029596        3.49000461443339        2.59111043234949
H            4.11362152427374        2.12430970890844        4.62800679259491
H            3.00710633280061       -0.07711997910577        4.48732380163035
H            2.17869563128081       -0.90611572569960        2.32163667919275

          :  Hamiltonian                  GFN2-xTB          :
         :: total energy             -27.535820151493 Eh    ::
         :: gradient norm              0.000337119198 Eh/a0 ::
         :: HOMO-LUMO gap              4.430409059880 eV    ::
         :: SCC energy               -27.930750044824 Eh    ::
         :: -> dispersion             -0.015206729860 Eh    ::
         :: repulsion energy           0.394862960616 Eh    ::

    * Orbital Energies and Occupations

         #    Occupation            Energy/Eh            Energy/eV
      -------------------------------------------------------------
         1        2.0000           -1.0178480             -27.6971
       ...           ...                  ...                  ...
        13        2.0000           -0.4989948             -13.5783
        14        2.0000           -0.4984004             -13.5622
        15        2.0000           -0.4827000             -13.1349
        16        2.0000           -0.4810079             -13.0889
        17        2.0000           -0.4760657             -12.9544
        18        2.0000           -0.4726835             -12.8624
        19        2.0000           -0.4311216             -11.7314
        20        2.0000           -0.4260690             -11.5939
        21        2.0000           -0.4096962             -11.1484
        22        2.0000           -0.4069211             -11.0729
        23        2.0000           -0.4004963             -10.8981
        24        2.0000           -0.3947384             -10.7414
        25        2.0000           -0.3942978             -10.7294 (HOMO)
        26                         -0.2314832              -6.2990 (LUMO)
        27                         -0.2277298              -6.1968
        28                         -0.1026789              -2.7940
        29                         -0.0548805              -1.4934
        30                          0.0303768               0.8266
        31                          0.0659676               1.7951
        32                          0.0668040               1.8178
        33                          0.0717928               1.9536
        34                          0.0724676               1.9719
        35                          0.0844349               2.2976
        36                          0.0960329               2.6132
       ...                                ...                  ...
        51                          0.6592476              17.9390
      -------------------------------------------------------------
                  HL-Gap            0.1628145 Eh            4.4304 eV

     #   Z          covCN         q      C6AA      α(0)
     1   7 N        2.700    -0.302    27.775     7.827
     2   6 C        3.737     0.002    20.622     6.480
     3   6 C        2.971     0.003    27.962     8.674
     4   6 C        2.924    -0.038    28.955     8.824
     5   6 C        2.919    -0.030    28.751     8.793
     6   6 C        2.920    -0.030    28.743     8.792
     7   6 C        2.920    -0.026    28.660     8.779
     8   6 C        2.924    -0.037    28.920     8.819
     9  17 Cl       0.837    -0.487   115.188    16.419
    10   1 H        0.860     0.167     1.288     1.778
    11   1 H        0.905     0.331     0.623     1.235
    12   1 H        0.860     0.167     1.291     1.780
    13   1 H        0.924     0.058     2.217     2.329
    14   1 H        0.923     0.029     2.605     2.524
    15   1 H        0.925     0.027     2.623     2.533
    16   1 H        0.926     0.032     2.553     2.499
    17   1 H        0.926     0.034     2.534     2.489
    18   1 H        0.926     0.038     2.470     2.458
    19   1 H        0.926     0.060     2.197     2.318

Wiberg/Mayer (AO) data.
largest (>0.10) Wiberg bond orders for each atom

     #   Z sym  total        # sym  WBO       # sym  WBO       # sym  WBO
 ---------------------------------------------------------------------------
     1   7 N    3.241 --     2 C    0.993    12 H    0.958    10 H    0.958
                            11 H    0.210
     2   6 C    3.973 --     3 C    1.005     1 N    0.993    14 H    0.972
                            13 H    0.966
     3   6 C    3.988 --     4 C    1.422     8 C    1.410     2 C    1.005
                             6 C    0.110
     4   6 C    3.992 --     5 C    1.439     3 C    1.422    15 H    0.969
                             7 C    0.111
     5   6 C    3.992 --     6 C    1.444     4 C    1.439    16 H    0.971
                             8 C    0.113
     6   6 C    3.992 --     5 C    1.444     7 C    1.435    17 H    0.971
                             3 C    0.110
     7   6 C    3.992 --     8 C    1.450     6 C    1.435    18 H    0.971
                             4 C    0.111
     8   6 C    3.990 --     7 C    1.450     3 C    1.410    19 H    0.965
                             5 C    0.113
     9  17 Cl   0.767 --    11 H    0.675
    10   1 H    0.971 --     1 N    0.958
    11   1 H    0.890 --     9 Cl   0.675     1 N    0.210
    12   1 H    0.972 --     1 N    0.958
    13   1 H    0.996 --     2 C    0.966
    14   1 H    0.999 --     2 C    0.972
    15   1 H    0.999 --     4 C    0.969
    16   1 H    0.999 --     5 C    0.971
    17   1 H    0.998 --     6 C    0.971
    18   1 H    0.998 --     7 C    0.971
    19   1 H    0.996 --     8 C    0.965
 ---------------------------------------------------------------------------

molecular dipole:
                 x           y           z       tot (Debye)
 q only:        0.380       1.665      -0.735
   full:        0.440       1.477      -0.854       4.479

           -------------------------------------------------
          | TOTAL ENERGY              -27.535820151493 Eh   |
          | GRADIENT NORM               0.000337119198 Eh/α |
          | HOMO-LUMO GAP               4.430409059880 eV   |
           -------------------------------------------------

 * finished run on 2023/01/23 at 18:51:33.434
