   * xtb version 6.5.1 (fef0646) compiled by 'conda@b96dff2e9fd6' on 2023-01-04
          program call               : xtb init.xyz --opt -c 0 -u 0 -P 16 --alpb water

   ID    Z sym.   atoms
    1    7 N      1
    2    6 C      2-8
    3   17 Cl     9
    4    1 H      10-19

      * Solvation model:               ALPB
        Solvent                        water
        Solvent mass                       1.8000E+01 g/mol
          :  Hamiltonian                  GFN2-xTB          :
 * total energy  :   -27.5677435 Eh     change       -0.8964562E-09 Eh
 * total energy  :   -27.5732942 Eh     change       -0.5550722E-02 Eh
 * total energy  :   -27.5745913 Eh     change       -0.1297158E-02 Eh
 * total energy  :   -27.5754978 Eh     change       -0.9064940E-03 Eh
 * total energy  :   -27.5762732 Eh     change       -0.7753786E-03 Eh
 * total energy  :   -27.5771289 Eh     change       -0.8557064E-03 Eh
 * total energy  :   -27.5778493 Eh     change       -0.7204124E-03 Eh
 * total energy  :   -27.5780679 Eh     change       -0.2185846E-03 Eh
 * total energy  :   -27.5780999 Eh     change       -0.3200676E-04 Eh
 * total energy  :   -27.5781205 Eh     change       -0.2057908E-04 Eh
 * total energy  :   -27.5781377 Eh     change       -0.1723867E-04 Eh
 * total energy  :   -27.5781555 Eh     change       -0.1780069E-04 Eh
 * total energy  :   -27.5781925 Eh     change       -0.3699766E-04 Eh
 * total energy  :   -27.5782063 Eh     change       -0.1370634E-04 Eh
 * total energy  :   -27.5782245 Eh     change       -0.1820758E-04 Eh
 * total energy  :   -27.5782316 Eh     change       -0.7133065E-05 Eh
 * total energy  :   -27.5782383 Eh     change       -0.6707919E-05 Eh
 * total energy  :   -27.5782433 Eh     change       -0.4965471E-05 Eh
   *** GEOMETRY OPTIMIZATION CONVERGED AFTER 18 ITERATIONS ***

 final structure:
================
19
 xtb: 6.5.1 (fef0646)
N            1.81165057393101        0.38667437055730       -1.00778755177040
C            2.69047728532524        0.06144684666098        0.13723495123940
C            3.13468375758417       -1.37754690556588        0.11861475964385
C            4.46728196930234       -1.69960735002007        0.34156970041305
C            4.87895746937997       -3.02112031444965        0.34957398800707
C            3.96179972685060       -4.03355470695993        0.12496166760778
C            2.63167468014037       -3.71840066453418       -0.10051125501322
C            2.21619126477632       -2.39820815634676       -0.09990387477971
Cl          -1.04037255532945       -0.69169391566914       -0.71221267827836
H            1.64913780784283        1.39474348511542       -1.06410399121150
H            0.86495040232207       -0.05714493708656       -0.90328410243803
H            2.21667947920602        0.05188966659243       -1.88558261372619
H            2.13399984601948        0.25234997764328        1.05722781854412
H            3.56800960279147        0.70875341044312        0.11298658001349
H            5.18882681807661       -0.91614491890634        0.51740634952281
H            5.91590677261107       -3.26258157299060        0.52846824103289
H            4.27996286771947       -5.06549082138990        0.12787709448108
H            1.91126843396270       -4.50488862832607       -0.27323318670993
H            1.17375379748712       -2.16731486476704       -0.26183189657846

          :  Hamiltonian                  GFN2-xTB          :
         :: total energy             -27.578243266394 Eh    ::
         :: gradient norm              0.000439120241 Eh/a0 ::
         :: HOMO-LUMO gap              4.745733598578 eV    ::
         :: SCC energy               -27.981412554969 Eh    ::
         :: -> dispersion             -0.014511857583 Eh    ::
         :: -> Gsolv                  -0.072844301453 Eh    ::
         :: repulsion energy           0.403117902970 Eh    ::

    * Orbital Energies and Occupations

         #    Occupation            Energy/Eh            Energy/eV
      -------------------------------------------------------------
         1        2.0000           -1.0076493             -27.4195
       ...           ...                  ...                  ...
        13        2.0000           -0.4954093             -13.4808
        14        2.0000           -0.4897538             -13.3269
        15        2.0000           -0.4777160             -12.9993
        16        2.0000           -0.4714576             -12.8290
        17        2.0000           -0.4684827             -12.7481
        18        2.0000           -0.4599152             -12.5149
        19        2.0000           -0.4234538             -11.5228
        20        2.0000           -0.4167947             -11.3416
        21        2.0000           -0.4042345             -10.9998
        22        2.0000           -0.4012045             -10.9173
        23        2.0000           -0.4004246             -10.8961
        24        2.0000           -0.3995364             -10.8719
        25        2.0000           -0.3968276             -10.7982 (HOMO)
        26                         -0.2224251              -6.0525 (LUMO)
        27                         -0.2187788              -5.9533
        28                         -0.0937657              -2.5515
        29                         -0.0174642              -0.4752
        30                          0.0798631               2.1732
        31                          0.0940343               2.5588
        32                          0.1012315               2.7546
        33                          0.1140401               3.1032
        34                          0.1162739               3.1640
        35                          0.1176932               3.2026
        36                          0.1184137               3.2222
       ...                                ...                  ...
        51                          0.6674611              18.1625
      -------------------------------------------------------------
                  HL-Gap            0.1744025 Eh            4.7457 eV

     #   Z          covCN         q      C6AA      α(0)
     1   7 N        3.483    -0.166    24.586     7.364
     2   6 C        3.737    -0.035    21.282     6.583
     3   6 C        2.970     0.010    27.789     8.647
     4   6 C        2.924    -0.044    29.105     8.847
     5   6 C        2.919    -0.035    28.867     8.811
     6   6 C        2.919    -0.035    28.877     8.812
     7   6 C        2.920    -0.031    28.771     8.796
     8   6 C        2.922    -0.041    29.010     8.833
     9  17 Cl       0.043    -0.946   124.837    17.004
    10   1 H        0.859     0.306     0.695     1.306
    11   1 H        0.899     0.294     0.729     1.336
    12   1 H        0.859     0.298     0.719     1.329
    13   1 H        0.924     0.110     1.694     2.035
    14   1 H        0.924     0.114     1.666     2.019
    15   1 H        0.926     0.055     2.259     2.350
    16   1 H        0.926     0.040     2.449     2.447
    17   1 H        0.926     0.030     2.583     2.513
    18   1 H        0.926     0.023     2.690     2.565
    19   1 H        0.926     0.054     2.272     2.357

Wiberg/Mayer (AO) data.
largest (>0.10) Wiberg bond orders for each atom

     #   Z sym  total        # sym  WBO       # sym  WBO       # sym  WBO
 ---------------------------------------------------------------------------
     1   7 N    3.645 --     2 C    0.966    12 H    0.897    10 H    0.892
                            11 H    0.834
     2   6 C    3.931 --     3 C    1.010     1 N    0.966    14 H    0.963
                            13 H    0.953
     3   6 C    3.988 --     4 C    1.417     8 C    1.411     2 C    1.010
                             6 C    0.109
     4   6 C    3.990 --     5 C    1.441     3 C    1.417    15 H    0.967
                             7 C    0.111
     5   6 C    3.992 --     4 C    1.441     6 C    1.441    16 H    0.970
                             8 C    0.113
     6   6 C    3.992 --     5 C    1.441     7 C    1.437    17 H    0.971
                             3 C    0.109
     7   6 C    3.993 --     8 C    1.447     6 C    1.437    18 H    0.972
                             4 C    0.111
     8   6 C    3.991 --     7 C    1.447     3 C    1.411    19 H    0.963
                             5 C    0.113
     9  17 Cl   0.105
    10   1 H    0.906 --     1 N    0.892
    11   1 H    0.914 --     1 N    0.834
    12   1 H    0.911 --     1 N    0.897
    13   1 H    0.988 --     2 C    0.953
    14   1 H    0.987 --     2 C    0.963
    15   1 H    0.997 --     4 C    0.967
    16   1 H    0.998 --     5 C    0.970
    17   1 H    0.999 --     6 C    0.971
    18   1 H    0.999 --     7 C    0.972
    19   1 H    0.997 --     8 C    0.963
 ---------------------------------------------------------------------------

molecular dipole:
                 x           y           z       tot (Debye)
 q only:        5.214       2.060      -0.335
   full:        4.392       1.790      -0.380      12.094

           -------------------------------------------------
          | TOTAL ENERGY              -27.578243266394 Eh   |
          | GRADIENT NORM               0.000439120241 Eh/α |
          | HOMO-LUMO GAP               4.745733598578 eV   |
           -------------------------------------------------

 * finished run on 2023/01/24 at 15:16:31.358
