   * xtb version 6.5.1 (fef0646) compiled by 'conda@b96dff2e9fd6' on 2023-01-04
          program call               : xtb init.xyz --opt -c 1 -u 0 -P 16

   ID    Z sym.   atoms
    1    7 N      1
    2    6 C      2-17
    3    1 H      18-35

          :  Hamiltonian                  GFN2-xTB          :
 * total energy  :   -45.8873446 Eh     change       -0.8296297E-10 Eh
 * total energy  :   -45.8907419 Eh     change       -0.3397292E-02 Eh
 * total energy  :   -45.8916106 Eh     change       -0.8687045E-03 Eh
 * total energy  :   -45.8921263 Eh     change       -0.5157936E-03 Eh
 * total energy  :   -45.8927202 Eh     change       -0.5938296E-03 Eh
 * total energy  :   -45.8932509 Eh     change       -0.5306944E-03 Eh
 * total energy  :   -45.8937772 Eh     change       -0.5262981E-03 Eh
 * total energy  :   -45.8943093 Eh     change       -0.5320925E-03 Eh
 * total energy  :   -45.8947874 Eh     change       -0.4781677E-03 Eh
 * total energy  :   -45.8951970 Eh     change       -0.4095228E-03 Eh
 * total energy  :   -45.8967495 Eh     change       -0.2982956E-04 Eh
 * total energy  :   -45.8967596 Eh     change       -0.1001437E-04 Eh
 * total energy  :   -45.8967739 Eh     change       -0.1438535E-04 Eh
 * total energy  :   -45.8967796 Eh     change       -0.5619992E-05 Eh
 * total energy  :   -45.8967865 Eh     change       -0.6897442E-05 Eh
 * total energy  :   -45.8967928 Eh     change       -0.6311118E-05 Eh
 * total energy  :   -45.8968008 Eh     change       -0.8046131E-05 Eh
 * total energy  :   -45.8968076 Eh     change       -0.6785758E-05 Eh
 * total energy  :   -45.8968113 Eh     change       -0.3681981E-05 Eh
   *** GEOMETRY OPTIMIZATION CONVERGED AFTER 31 ITERATIONS ***

 final structure:
================
35
 xtb: 6.5.1 (fef0646)
N            3.11976869226934        1.58095780161100        2.45491551765534
C            2.42984595260581        0.81558979326762        1.37570347503990
C            2.86046452608065        1.41339172085101        0.03308279902700
C            4.36473146565173        1.38620051027914       -0.04077617792633
C            5.03667720811797        0.27923565319352       -0.54906433661205
C            6.41367264056906        0.21879313569212       -0.53531531201624
C            7.18227704549140        1.25875362838929        0.00462516428068
C            8.62814248505047        1.24729472188420        0.03866696748521
C            9.42297187100022        0.40645407034230       -0.64357455987690
C           10.87106918121037        0.39902754901487       -0.63384312368998
C           11.63307130935184        1.10944885722600        0.29896147939959
C           13.01216417695819        1.06701729172711        0.25941771213352
C           13.66292374229552        0.32067367183787       -0.71110353702521
C           12.92297150591767       -0.39281513566431       -1.64044876199715
C           11.54349122244406       -0.35920012324612       -1.59849350550975
C            6.50000321059890        2.36323264386285        0.52566000326705
C            5.11789922827156        2.42949228004603        0.50686068287215
H            3.19499855682330        1.05562325898719        3.33034261401665
H            2.63951258834568        2.46859985307030        2.63790578680105
H            4.07918530477586        1.80109348238966        2.05454830865441
H            1.35026558747023        0.86172284699203        1.51513445568411
H            2.75325120726574       -0.22448412629172        1.43336854511536
H            2.48648508515524        2.43432782914942       -0.05945770831389
H            2.42638567509013        0.82245847670938       -0.77151205760000
H            4.46970366222774       -0.53605329205018       -0.97333998119989
H            6.90202606346597       -0.65105847425679       -0.94309810879906
H            9.07157832385172        2.02434023941745        0.64588221681428
H            8.97755059313307       -0.32818912133314       -1.30215516367386
H           11.14475226683301        1.68595443433211        1.06973155948686
H           13.58622802038708        1.61735514540833        0.98983819442368
H           14.74136725121579        0.29256933991150       -0.73946841627451
H           13.42420897983665       -0.97788787477645       -2.39666013085898
H           10.97149317851822       -0.91696209517625       -2.32650540767454
H            7.06407313735199        3.18985986591789        0.93124787553043
H            4.63685905436765        3.34973214128449        0.81961293136167

          :  Hamiltonian                  GFN2-xTB          :
         :: total energy             -45.896811278814 Eh    ::
         :: gradient norm              0.000197026679 Eh/a0 ::
         :: HOMO-LUMO gap              2.480989759584 eV    ::
         :: SCC energy               -46.740581110454 Eh    ::
         :: -> dispersion             -0.031690451532 Eh    ::
         :: repulsion energy           0.844048371525 Eh    ::

    * Orbital Energies and Occupations

         #    Occupation            Energy/Eh            Energy/eV
      -------------------------------------------------------------
         1        2.0000           -0.8755061             -23.8237
       ...           ...                  ...                  ...
        31        2.0000           -0.5588402             -15.2068
        32        2.0000           -0.5554130             -15.1136
        33        2.0000           -0.5473615             -14.8945
        34        2.0000           -0.5441124             -14.8061
        35        2.0000           -0.5393207             -14.6757
        36        2.0000           -0.5364286             -14.5970
        37        2.0000           -0.5261573             -14.3175
        38        2.0000           -0.5220483             -14.2057
        39        2.0000           -0.5036234             -13.7043
        40        2.0000           -0.4961935             -13.5021
        41        2.0000           -0.4897975             -13.3281
        42        2.0000           -0.4756149             -12.9421
        43        2.0000           -0.4590111             -12.4903 (HOMO)
        44                         -0.3678364             -10.0093 (LUMO)
        45                         -0.3472756              -9.4499
        46                         -0.3092289              -8.4145
        47                         -0.2925731              -7.9613
        48                         -0.2547160              -6.9312
        49                         -0.2366571              -6.4398
        50                         -0.1979867              -5.3875
        51                         -0.1500772              -4.0838
        52                         -0.1354576              -3.6860
        53                         -0.0817606              -2.2248
        54                         -0.0741100              -2.0166
       ...                                ...                  ...
        86                          0.6129460              16.6791
      -------------------------------------------------------------
                  HL-Gap            0.0911747 Eh            2.4810 eV

     #   Z          covCN         q      C6AA      α(0)
     1   7 N        3.482    -0.146    24.148     7.298
     2   6 C        3.735    -0.028    21.165     6.566
     3   6 C        3.809    -0.090    22.208     6.708
     4   6 C        2.972    -0.015    28.373     8.737
     5   6 C        2.919    -0.039    28.981     8.828
     6   6 C        2.922    -0.030    28.753     8.793
     7   6 C        2.969     0.024    27.458     8.595
     8   6 C        2.901    -0.050    29.249     8.868
     9   6 C        2.903    -0.023    28.576     8.765
    10   6 C        2.971     0.013    27.724     8.637
    11   6 C        2.923    -0.029    28.731     8.790
    12   6 C        2.917    -0.026    28.640     8.776
    13   6 C        2.920    -0.021    28.526     8.758
    14   6 C        2.916    -0.025    28.623     8.773
    15   6 C        2.928    -0.029    28.717     8.788
    16   6 C        2.926    -0.038    28.956     8.825
    17   6 C        2.918    -0.069    29.721     8.940
    18   1 H        0.859     0.257     0.857     1.450
    19   1 H        0.859     0.260     0.847     1.442
    20   1 H        0.855     0.280     0.778     1.382
    21   1 H        0.925     0.099     1.791     2.093
    22   1 H        0.924     0.101     1.774     2.083
    23   1 H        0.924     0.067     2.116     2.275
    24   1 H        0.925     0.090     1.878     2.143
    25   1 H        0.926     0.044     2.391     2.418
    26   1 H        0.926     0.054     2.265     2.354
    27   1 H        0.925     0.044     2.397     2.421
    28   1 H        0.925     0.045     2.384     2.415
    29   1 H        0.926     0.035     2.518     2.481
    30   1 H        0.926     0.042     2.421     2.433
    31   1 H        0.926     0.046     2.369     2.407
    32   1 H        0.926     0.044     2.393     2.419
    33   1 H        0.926     0.038     2.479     2.462
    34   1 H        0.926     0.046     2.373     2.409
    35   1 H        0.925     0.028     2.612     2.527

Wiberg/Mayer (AO) data.
largest (>0.10) Wiberg bond orders for each atom

     #   Z sym  total        # sym  WBO       # sym  WBO       # sym  WBO
 ---------------------------------------------------------------------------
     1   7 N    3.662 --     2 C    0.936    18 H    0.920    19 H    0.918
                            20 H    0.821
     2   6 C    3.899 --     3 C    0.992    22 H    0.969    21 H    0.969
                             1 N    0.936
     3   6 C    3.979 --     4 C    1.006     2 C    0.992    23 H    0.969
                            24 H    0.961
     4   6 C    3.969 --     5 C    1.391    17 C    1.366     3 C    1.006
     5   6 C    3.990 --     6 C    1.478     4 C    1.391    25 H    0.968
     6   6 C    3.980 --     5 C    1.478     7 C    1.344    26 H    0.964
     7   6 C    3.985 --    16 C    1.361     6 C    1.344     8 C    1.128
     8   6 C    3.988 --     9 C    1.736     7 C    1.128    27 H    0.958
     9   6 C    3.985 --     8 C    1.736    10 C    1.124    28 H    0.958
    10   6 C    3.988 --    15 C    1.358    11 C    1.357     9 C    1.124
    11   6 C    3.982 --    12 C    1.468    10 C    1.357    29 H    0.966
                            14 C    0.103
    12   6 C    3.991 --    11 C    1.468    13 C    1.423    30 H    0.970
                            15 C    0.102
    13   6 C    3.976 --    14 C    1.428    12 C    1.423    31 H    0.971
    14   6 C    3.991 --    15 C    1.463    13 C    1.428    32 H    0.970
                            11 C    0.103
    15   6 C    3.980 --    14 C    1.463    10 C    1.358    33 H    0.968
                            12 C    0.102
    16   6 C    3.980 --    17 C    1.444     7 C    1.361    34 H    0.968
    17   6 C    3.988 --    16 C    1.444     4 C    1.366    35 H    0.958
    18   1 H    0.934 --     1 N    0.920
    19   1 H    0.932 --     1 N    0.918
    20   1 H    0.922 --     1 N    0.821
    21   1 H    0.989 --     2 C    0.969
    22   1 H    0.990 --     2 C    0.969
    23   1 H    0.995 --     3 C    0.969
    24   1 H    0.991 --     3 C    0.961
    25   1 H    0.998 --     5 C    0.968
    26   1 H    0.997 --     6 C    0.964
    27   1 H    0.998 --     8 C    0.958
    28   1 H    0.998 --     9 C    0.958
    29   1 H    0.999 --    11 C    0.966
    30   1 H    0.998 --    12 C    0.970
    31   1 H    0.997 --    13 C    0.971
    32   1 H    0.998 --    14 C    0.970
    33   1 H    0.999 --    15 C    0.968
    34   1 H    0.998 --    16 C    0.968
    35   1 H    0.999 --    17 C    0.958
 ---------------------------------------------------------------------------

molecular dipole:
                 x           y           z       tot (Debye)
 q only:        7.825       2.409       3.407
   full:        7.793       2.519       3.566      22.706

           -------------------------------------------------
          | TOTAL ENERGY              -45.896811278814 Eh   |
          | GRADIENT NORM               0.000197026679 Eh/α |
          | HOMO-LUMO GAP               2.480989759584 eV   |
           -------------------------------------------------

 * finished run on 2023/01/23 at 13:54:39.833
