   * xtb version 6.5.1 (fef0646) compiled by 'conda@b96dff2e9fd6' on 2023-01-04
          program call               : xtb init.xyz --opt -c 0 -u 0 -P 16 --input xtb.inp

   ID    Z sym.   atoms
    1    7 N      1
    2    6 C      2-9
    3   17 Cl     10
    4    1 H      11-22

          :  Hamiltonian                  GFN2-xTB          :
 * total energy  :   -30.6260757 Eh     change       -0.7705836E-10 Eh
 * total energy  :   -30.6380653 Eh     change       -0.1198961E-01 Eh
 * total energy  :   -30.6437996 Eh     change       -0.5734295E-02 Eh
 * total energy  :   -30.6462773 Eh     change       -0.2477693E-02 Eh
 * total energy  :   -30.6484490 Eh     change       -0.2171693E-02 Eh
 * total energy  :   -30.6522483 Eh     change       -0.3799351E-02 Eh
 * total energy  :   -30.6586600 Eh     change       -0.6411666E-02 Eh
 * total energy  :   -30.6662941 Eh     change       -0.7634149E-02 Eh
 * total energy  :   -30.6750032 Eh     change       -0.8709041E-02 Eh
 * total energy  :   -30.6706313 Eh     change        0.4371904E-02 Eh
 * total energy  :   -30.7057239 Eh     change       -0.3369396E-04 Eh
 * total energy  :   -30.7057607 Eh     change       -0.3673386E-04 Eh
 * total energy  :   -30.7057907 Eh     change       -0.3001561E-04 Eh
 * total energy  :   -30.7058170 Eh     change       -0.2635064E-04 Eh
 * total energy  :   -30.7058358 Eh     change       -0.1881715E-04 Eh
 * total energy  :   -30.7058486 Eh     change       -0.1273121E-04 Eh
 * total energy  :   -30.7058542 Eh     change       -0.5656072E-05 Eh
 * total energy  :   -30.7058594 Eh     change       -0.5209190E-05 Eh
 * total energy  :   -30.7058620 Eh     change       -0.2541820E-05 Eh
   *** GEOMETRY OPTIMIZATION CONVERGED AFTER 46 ITERATIONS ***

 final structure:
================
22
 xtb: 6.5.1 (fef0646)
N            3.00718165031150        0.94355702985355        0.38561948328533
C            2.27940482109201       -0.30142183943362        0.10803085906988
C            0.79405728885911       -0.07598412140670        0.38172126648661
C            2.81110635492297       -1.47500946017901        0.90376632152917
C            3.27111323004247       -2.61452618065835        0.25730045977854
C            3.76259226677983       -3.68719046291392        0.98060850811931
C            3.80396207721972       -3.63151657604238        2.36285192187422
C            3.35009226501730       -2.49898122103131        3.01724460098869
C            2.85745595102821       -1.42911160023813        2.29253421516387
Cl           1.99221948972976        3.12409035764414       -1.27806012691791
H            3.99785229929877        0.83523003065419        0.19479727674052
H            2.89166559559651        1.21737163165575        1.35615728561021
H            2.46321862837060        2.09147548713550       -0.49402636340909
H            2.41393534005239       -0.50634435191668       -0.95966799351425
H            0.62703033759246        0.15265152400384        1.43140886638118
H            0.22983814882046       -0.96952722906678        0.12976200762179
H            0.43403574413011        0.75453972703140       -0.21808772601217
H            3.24097327240773       -2.66206661907100       -0.82203094833039
H            4.11525178672448       -4.56724711706455        0.46349137693111
H            4.18804004156205       -4.46699784969705        2.92873509336541
H            3.37823547564710       -2.44901659265590        4.09583896752045
H            2.50269793478468       -0.55335456658557        2.81866464770610

          :  Hamiltonian                  GFN2-xTB          :
         :: total energy             -30.705861984965 Eh    ::
         :: gradient norm              0.000341266224 Eh/a0 ::
         :: HOMO-LUMO gap              4.218842661512 eV    ::
         :: SCC energy               -31.149454602990 Eh    ::
         :: -> dispersion             -0.018002393953 Eh    ::
         :: repulsion energy           0.443555310127 Eh    ::

    * Orbital Energies and Occupations

         #    Occupation            Energy/Eh            Energy/eV
      -------------------------------------------------------------
         1        2.0000           -1.0155469             -27.6344
       ...           ...                  ...                  ...
        16        2.0000           -0.4930501             -13.4166
        17        2.0000           -0.4896945             -13.3253
        18        2.0000           -0.4872391             -13.2584
        19        2.0000           -0.4730742             -12.8730
        20        2.0000           -0.4718152             -12.8387
        21        2.0000           -0.4571246             -12.4390
        22        2.0000           -0.4413708             -12.0103
        23        2.0000           -0.4333835             -11.7930
        24        2.0000           -0.4171674             -11.3517
        25        2.0000           -0.4134037             -11.2493
        26        2.0000           -0.3964126             -10.7869
        27        2.0000           -0.3925636             -10.6822
        28        2.0000           -0.3924971             -10.6804 (HOMO)
        29                         -0.2374575              -6.4615 (LUMO)
        30                         -0.2354676              -6.4074
        31                         -0.1085801              -2.9546
        32                         -0.0534922              -1.4556
        33                          0.0244820               0.6662
        34                          0.0677611               1.8439
        35                          0.0693894               1.8882
        36                          0.0696034               1.8940
        37                          0.0751767               2.0457
        38                          0.0752427               2.0475
        39                          0.0937275               2.5505
       ...                                ...                  ...
        57                          0.6510172              17.7151
      -------------------------------------------------------------
                  HL-Gap            0.1550396 Eh            4.2188 eV

     #   Z          covCN         q      C6AA      α(0)
     1   7 N        2.712    -0.305    27.845     7.837
     2   6 C        3.786     0.042    19.891     6.352
     3   6 C        3.757    -0.121    22.870     6.818
     4   6 C        2.971    -0.004    28.126     8.699
     5   6 C        2.925    -0.038    28.936     8.822
     6   6 C        2.919    -0.028    28.698     8.785
     7   6 C        2.920    -0.030    28.749     8.793
     8   6 C        2.919    -0.030    28.745     8.792
     9   6 C        2.924    -0.035    28.867     8.811
    10  17 Cl       0.836    -0.493   115.412    16.435
    11   1 H        0.860     0.165     1.304     1.789
    12   1 H        0.860     0.171     1.267     1.763
    13   1 H        0.915     0.331     0.625     1.236
    14   1 H        0.924     0.050     2.314     2.379
    15   1 H        0.925     0.046     2.372     2.409
    16   1 H        0.925     0.049     2.336     2.390
    17   1 H        0.925     0.069     2.098     2.265
    18   1 H        0.926     0.032     2.558     2.501
    19   1 H        0.926     0.035     2.522     2.483
    20   1 H        0.926     0.034     2.533     2.489
    21   1 H        0.926     0.033     2.546     2.495
    22   1 H        0.925     0.028     2.619     2.530

Wiberg/Mayer (AO) data.
largest (>0.10) Wiberg bond orders for each atom

     #   Z sym  total        # sym  WBO       # sym  WBO       # sym  WBO
 ---------------------------------------------------------------------------
     1   7 N    3.257 --     2 C    0.986    11 H    0.959    12 H    0.953
                            13 H    0.217
     2   6 C    3.972 --     3 C    0.998     4 C    0.988     1 N    0.986
                            14 H    0.963
     3   6 C    3.991 --     2 C    0.998    16 H    0.984    15 H    0.984
                            17 H    0.980
     4   6 C    3.988 --     5 C    1.416     9 C    1.413     2 C    0.988
                             7 C    0.110
     5   6 C    3.991 --     6 C    1.443     4 C    1.416    18 H    0.968
                             8 C    0.111
     6   6 C    3.992 --     5 C    1.443     7 C    1.441    19 H    0.971
                             9 C    0.112
     7   6 C    3.992 --     6 C    1.441     8 C    1.437    20 H    0.971
                             4 C    0.110
     8   6 C    3.992 --     9 C    1.447     7 C    1.437    21 H    0.971
                             5 C    0.111
     9   6 C    3.992 --     8 C    1.447     4 C    1.413    22 H    0.966
                             6 C    0.112
    10  17 Cl   0.759 --    13 H    0.668
    11   1 H    0.973 --     1 N    0.959
    12   1 H    0.971 --     1 N    0.953
    13   1 H    0.890 --    10 Cl   0.668     1 N    0.217
    14   1 H    0.997 --     2 C    0.963
    15   1 H    0.998 --     3 C    0.984
    16   1 H    0.998 --     3 C    0.984
    17   1 H    0.994 --     3 C    0.980
    18   1 H    0.999 --     5 C    0.968
    19   1 H    0.998 --     6 C    0.971
    20   1 H    0.998 --     7 C    0.971
    21   1 H    0.999 --     8 C    0.971
    22   1 H    0.999 --     9 C    0.966
 ---------------------------------------------------------------------------

molecular dipole:
                 x           y           z       tot (Debye)
 q only:        0.518      -1.617       1.132
   full:        0.600      -1.461       1.110       4.907

           -------------------------------------------------
          | TOTAL ENERGY              -30.705861984965 Eh   |
          | GRADIENT NORM               0.000341266224 Eh/α |
          | HOMO-LUMO GAP               4.218842661512 eV   |
           -------------------------------------------------

 * finished run on 2023/01/23 at 21:11:33.434
