   * xtb version 6.5.1 (fef0646) compiled by 'conda@b96dff2e9fd6' on 2023-01-04
          program call               : xtb init.xyz --opt -c 0 -u 0 -P 16 --alpb water

   ID    Z sym.   atoms
    1    7 N      1
    2    6 C      2-10
    3   17 Cl     11
    4    1 H      12-23

      * Solvation model:               ALPB
        Solvent                        water
        Solvent mass                       1.8000E+01 g/mol
          :  Hamiltonian                  GFN2-xTB          :
 * total energy  :   -32.8440643 Eh     change       -0.7683383E-09 Eh
 * total energy  :   -32.8495536 Eh     change       -0.5489286E-02 Eh
 * total energy  :   -32.8507458 Eh     change       -0.1192182E-02 Eh
 * total energy  :   -32.8509945 Eh     change       -0.2486878E-03 Eh
 * total energy  :   -32.8510998 Eh     change       -0.1052601E-03 Eh
 * total energy  :   -32.8511632 Eh     change       -0.6340553E-04 Eh
 * total energy  :   -32.8512668 Eh     change       -0.1036088E-03 Eh
 * total energy  :   -32.8514981 Eh     change       -0.2313194E-03 Eh
 * total energy  :   -32.8518373 Eh     change       -0.3392363E-03 Eh
 * total energy  :   -32.8523477 Eh     change       -0.5103335E-03 Eh
 * total energy  :   -32.8578744 Eh     change        0.1593400E-04 Eh
 * total energy  :   -32.8579189 Eh     change       -0.4454059E-04 Eh
 * total energy  :   -32.8579360 Eh     change       -0.1712044E-04 Eh
 * total energy  :   -32.8579449 Eh     change       -0.8856153E-05 Eh
 * total energy  :   -32.8579522 Eh     change       -0.7252022E-05 Eh
 * total energy  :   -32.8579576 Eh     change       -0.5437350E-05 Eh
 * total energy  :   -32.8579643 Eh     change       -0.6673658E-05 Eh
 * total energy  :   -32.8579693 Eh     change       -0.5006929E-05 Eh
 * total energy  :   -32.8579742 Eh     change       -0.4930320E-05 Eh
   *** GEOMETRY OPTIMIZATION CONVERGED AFTER 51 ITERATIONS ***

 final structure:
================
23
 xtb: 6.5.1 (fef0646)
N            1.26815075383342       -0.51974813713708       -0.21126614949417
C            2.70439496742298       -0.19286360878189       -0.05668430774321
C            3.11595477046704        0.94099133151747       -0.95613092941024
C            2.41691805766646        2.14385801615833       -0.93658089767361
C            2.79642481224604        3.18865322686282       -1.75468030444715
C            3.88958606338211        3.06795973576412       -2.61489767007952
C            4.33160405937228        4.14517747154199       -3.49296729495184
C            3.93203699852127        5.41078813265823       -3.45205330378890
C            4.58095191400512        1.85595148975946       -2.62998441575451
C            4.20089225982654        0.80914655667267       -1.81282586009168
Cl          -0.62259239139574        1.49223878674905        1.11674105297277
H            1.03360256019703       -1.37553864531865        0.29765346042638
H            1.02365572804155       -0.62841871319441       -1.19870614296183
H            0.65723550728282        0.23577182532981        0.18852856830540
H            3.30091373141474       -1.07565227047979       -0.28980879259833
H            2.87679899977647        0.09065962776208        0.98334861502066
H            1.56908648645875        2.26481444996192       -0.27865518004354
H            2.23032184855105        4.10693848543622       -1.72882486210916
H            5.07119936835929        3.85265983310960       -4.22857571518570
H            3.21517134097480        5.77130822212115       -2.73385190500464
H            4.31763710692501        6.14349821993146       -4.13966926952301
H            5.42766916909437        1.74026801315700       -3.29078684945974
H            4.75666588742338       -0.11579204959643       -1.84189184647584

          :  Hamiltonian                  GFN2-xTB          :
         :: total energy             -32.857974200470 Eh    ::
         :: gradient norm              0.000489000028 Eh/a0 ::
         :: HOMO-LUMO gap              3.570574620361 eV    ::
         :: SCC energy               -33.366317728195 Eh    ::
         :: -> dispersion             -0.018892851836 Eh    ::
         :: -> Gsolv                  -0.073513190044 Eh    ::
         :: repulsion energy           0.508356861197 Eh    ::

    * Orbital Energies and Occupations

         #    Occupation            Energy/Eh            Energy/eV
      -------------------------------------------------------------
         1        2.0000           -1.0073263             -27.4107
       ...           ...                  ...                  ...
        18        2.0000           -0.4800709             -13.0634
        19        2.0000           -0.4715726             -12.8321
        20        2.0000           -0.4691176             -12.7653
        21        2.0000           -0.4568420             -12.4313
        22        2.0000           -0.4394123             -11.9570
        23        2.0000           -0.4294774             -11.6867
        24        2.0000           -0.4220400             -11.4843
        25        2.0000           -0.4128278             -11.2336
        26        2.0000           -0.4039037             -10.9908
        27        2.0000           -0.4010656             -10.9136
        28        2.0000           -0.4008329             -10.9072
        29        2.0000           -0.3991253             -10.8608
        30        2.0000           -0.3803536             -10.3499 (HOMO)
        31                         -0.2491374              -6.7794 (LUMO)
        32                         -0.2181404              -5.9359
        33                         -0.1731864              -4.7126
        34                         -0.0795991              -2.1660
        35                         -0.0155491              -0.4231
        36                          0.0797863               2.1711
        37                          0.0943952               2.5686
        38                          0.1004247               2.7327
        39                          0.1120072               3.0479
        40                          0.1165614               3.1718
        41                          0.1174248               3.1953
       ...                                ...                  ...
        61                          0.6847912              18.6341
      -------------------------------------------------------------
                  HL-Gap            0.1312162 Eh            3.5706 eV

     #   Z          covCN         q      C6AA      α(0)
     1   7 N        3.483    -0.167    24.591     7.365
     2   6 C        3.737    -0.035    21.275     6.582
     3   6 C        2.970     0.008    27.836     8.654
     4   6 C        2.921    -0.040    29.004     8.832
     5   6 C        2.923    -0.034    28.836     8.806
     6   6 C        2.971     0.011    27.763     8.643
     7   6 C        2.896    -0.036    28.899     8.814
     8   6 C        2.837    -0.094    30.352     9.028
     9   6 C        2.927    -0.040    28.988     8.830
    10   6 C        2.921    -0.045    29.122     8.849
    11  17 Cl       0.041    -0.947   124.859    17.006
    12   1 H        0.859     0.306     0.696     1.307
    13   1 H        0.859     0.298     0.719     1.329
    14   1 H        0.898     0.293     0.731     1.337
    15   1 H        0.924     0.113     1.669     2.021
    16   1 H        0.924     0.110     1.697     2.037
    17   1 H        0.926     0.053     2.282     2.362
    18   1 H        0.926     0.027     2.622     2.532
    19   1 H        0.925     0.041     2.439     2.442
    20   1 H        0.926     0.038     2.477     2.461
    21   1 H        0.926     0.041     2.441     2.443
    22   1 H        0.926     0.041     2.434     2.440
    23   1 H        0.926     0.057     2.238     2.339

Wiberg/Mayer (AO) data.
largest (>0.10) Wiberg bond orders for each atom

     #   Z sym  total        # sym  WBO       # sym  WBO       # sym  WBO
 ---------------------------------------------------------------------------
     1   7 N    3.645 --     2 C    0.963    13 H    0.897    12 H    0.892
                            14 H    0.835
     2   6 C    3.930 --     3 C    1.010    15 H    0.964     1 N    0.963
                            16 H    0.954
     3   6 C    3.988 --    10 C    1.410     4 C    1.397     2 C    1.010
     4   6 C    3.991 --     5 C    1.468     3 C    1.397    17 H    0.963
                             9 C    0.105
     5   6 C    3.993 --     4 C    1.468     6 C    1.370    18 H    0.967
                            10 C    0.103
     6   6 C    3.990 --     9 C    1.378     5 C    1.370     7 C    1.090
     7   6 C    3.990 --     8 C    1.903     6 C    1.090    19 H    0.964
     8   6 C    3.989 --     7 C    1.903    21 H    0.978    20 H    0.973
     9   6 C    3.991 --    10 C    1.455     6 C    1.378    22 H    0.968
                             4 C    0.105
    10   6 C    3.989 --     9 C    1.455     3 C    1.410    23 H    0.966
                             5 C    0.103
    11  17 Cl   0.104
    12   1 H    0.906 --     1 N    0.892
    13   1 H    0.911 --     1 N    0.897
    14   1 H    0.914 --     1 N    0.835
    15   1 H    0.987 --     2 C    0.964
    16   1 H    0.987 --     2 C    0.954
    17   1 H    0.997 --     4 C    0.963
    18   1 H    0.999 --     5 C    0.967
    19   1 H    0.998 --     7 C    0.964
    20   1 H    0.999 --     8 C    0.973
    21   1 H    0.998 --     8 C    0.978
    22   1 H    0.998 --     9 C    0.968
    23   1 H    0.996 --    10 C    0.966
 ---------------------------------------------------------------------------

molecular dipole:
                 x           y           z       tot (Debye)
 q only:        3.606      -3.720      -2.276
   full:        2.963      -3.206      -1.968      12.173

           -------------------------------------------------
          | TOTAL ENERGY              -32.857974200470 Eh   |
          | GRADIENT NORM               0.000489000028 Eh/α |
          | HOMO-LUMO GAP               3.570574620361 eV   |
           -------------------------------------------------

 * finished run on 2023/01/24 at 14:55:57.253
