   * xtb version 6.5.1 (fef0646) compiled by 'conda@b96dff2e9fd6' on 2023-01-04
          program call               : xtb init.xyz --opt -c 1 -u 0 -P 16 --alpb water

   ID    Z sym.   atoms
    1    7 N      1
    2    6 C      2-5
    3   35 Br     6
    4    1 H      7-17

      * Solvation model:               ALPB
        Solvent                        water
        Solvent mass                       1.8000E+01 g/mol
          :  Hamiltonian                  GFN2-xTB          :
 * total energy  :   -20.8530413 Eh     change       -0.1589200E-09 Eh
 * total energy  :   -20.8546888 Eh     change       -0.1647497E-02 Eh
 * total energy  :   -20.8549862 Eh     change       -0.2974238E-03 Eh
 * total energy  :   -20.8550143 Eh     change       -0.2808655E-04 Eh
 * total energy  :   -20.8550195 Eh     change       -0.5192089E-05 Eh
 * total energy  :   -20.8550207 Eh     change       -0.1224838E-05 Eh
   *** GEOMETRY OPTIMIZATION CONVERGED AFTER 6 ITERATIONS ***

 final structure:
================
17
 xtb: 6.5.1 (fef0646)
N            0.93688166615523        0.04582881888867       -0.07273785280620
C            2.41905745423335        0.02966175096812       -0.08491862990562
C            2.93708508496670       -0.76957516662468       -1.27717878139727
C            4.46755560654625       -0.77370357657638       -1.28878832979869
C            4.98503689839138       -1.57044287535652       -2.47333074179066
Br           6.98634193337928       -1.59110458860632       -2.51434350710806
H            0.58759064777162        0.57949825458203        0.73164684095730
H            0.57108031044936       -0.91209859997530       -0.01519777862196
H            0.57783753207198        0.47679357789656       -0.93314761137746
H            2.78049439237670       -0.41694451674134        0.84113763694339
H            2.78863938909325        1.05340603585464       -0.14069861635796
H            2.58226524641825       -0.33114181470357       -2.21029595992831
H            2.58527291581839       -1.80026427871084       -1.22384759824454
H            4.85094981562403       -1.21479134282374       -0.36734768841841
H            4.84707637952635        0.24735699810492       -1.35261188681110
H            4.68403512732076       -1.13742786758949       -3.42548590786211
H            4.68911959985713       -2.61693080858675       -2.42821358747235

          :  Hamiltonian                  GFN2-xTB          :
         :: total energy             -20.855020679530 Eh    ::
         :: gradient norm              0.000186024947 Eh/a0 ::
         :: HOMO-LUMO gap              5.071229262386 eV    ::
         :: SCC energy               -21.093032194906 Eh    ::
         :: -> dispersion             -0.008590851493 Eh    ::
         :: -> Gsolv                  -0.131724662690 Eh    ::
         :: repulsion energy           0.238031183010 Eh    ::

    * Orbital Energies and Occupations

         #    Occupation            Energy/Eh            Energy/eV
      -------------------------------------------------------------
         1        2.0000           -0.8399898             -22.8573
       ...           ...                  ...                  ...
         7        2.0000           -0.5922444             -16.1158
         8        2.0000           -0.5712477             -15.5444
         9        2.0000           -0.5531677             -15.0525
        10        2.0000           -0.5408881             -14.7183
        11        2.0000           -0.5094781             -13.8636
        12        2.0000           -0.5074129             -13.8074
        13        2.0000           -0.5012601             -13.6400
        14        2.0000           -0.4702876             -12.7972
        15        2.0000           -0.4670756             -12.7098
        16        2.0000           -0.4626624             -12.5897
        17        2.0000           -0.4420965             -12.0301
        18        2.0000           -0.4090260             -11.1302
        19        2.0000           -0.4071289             -11.0785 (HOMO)
        20                         -0.2207647              -6.0073 (LUMO)
        21                         -0.0536933              -1.4611
        22                          0.0223093               0.6071
        23                          0.0390796               1.0634
        24                          0.0441609               1.2017
        25                          0.0538510               1.4654
        26                          0.0579698               1.5774
        27                          0.0731772               1.9913
        28                          0.0937748               2.5517
        29                          0.0957283               2.6049
        30                          0.1354935               3.6870
       ...                                ...                  ...
        40                          0.3307241               8.9995
      -------------------------------------------------------------
                  HL-Gap            0.1863642 Eh            5.0712 eV

     #   Z          covCN         q      C6AA      α(0)
     1   7 N        3.485    -0.162    24.486     7.349
     2   6 C        3.733    -0.040    21.373     6.599
     3   6 C        3.804    -0.090    22.213     6.710
     4   6 C        3.846    -0.075    21.900     6.657
     5   6 C        3.737     0.014    20.413     6.447
     6  35 Br       0.953    -0.281   192.868    22.392
     7   1 H        0.859     0.319     0.660     1.272
     8   1 H        0.859     0.311     0.682     1.294
     9   1 H        0.859     0.311     0.682     1.293
    10   1 H        0.925     0.114     1.664     2.017
    11   1 H        0.925     0.114     1.665     2.018
    12   1 H        0.924     0.079     1.992     2.207
    13   1 H        0.924     0.079     1.994     2.208
    14   1 H        0.924     0.068     2.104     2.268
    15   1 H        0.924     0.068     2.104     2.268
    16   1 H        0.926     0.085     1.927     2.171
    17   1 H        0.926     0.085     1.927     2.171

Wiberg/Mayer (AO) data.
largest (>0.10) Wiberg bond orders for each atom

     #   Z sym  total        # sym  WBO       # sym  WBO       # sym  WBO
 ---------------------------------------------------------------------------
     1   7 N    3.651 --     2 C    0.970     8 H    0.889     9 H    0.889
                             7 H    0.885
     2   6 C    3.925 --     3 C    1.009     1 N    0.970    10 H    0.965
                            11 H    0.965
     3   6 C    3.987 --     2 C    1.009     4 C    0.995    13 H    0.971
                            12 H    0.971
     4   6 C    3.985 --     5 C    1.013     3 C    0.995    14 H    0.973
                            15 H    0.973
     5   6 C    3.916 --     4 C    1.013    17 H    0.971    16 H    0.971
                             6 Br   0.943
     6  35 Br   0.997 --     5 C    0.943
     7   1 H    0.898 --     1 N    0.885
     8   1 H    0.903 --     1 N    0.889
     9   1 H    0.903 --     1 N    0.889
    10   1 H    0.987 --     2 C    0.965
    11   1 H    0.987 --     2 C    0.965
    12   1 H    0.994 --     3 C    0.971
    13   1 H    0.994 --     3 C    0.971
    14   1 H    0.995 --     4 C    0.973
    15   1 H    0.995 --     4 C    0.973
    16   1 H    0.993 --     5 C    0.971
    17   1 H    0.993 --     5 C    0.971
 ---------------------------------------------------------------------------

molecular dipole:
                 x           y           z       tot (Debye)
 q only:        0.586       0.210       0.054
   full:        0.597       0.087      -0.129       1.568

           -------------------------------------------------
          | TOTAL ENERGY              -20.855020679530 Eh   |
          | GRADIENT NORM               0.000186024947 Eh/α |
          | HOMO-LUMO GAP               5.071229262386 eV   |
           -------------------------------------------------

 * finished run on 2023/01/24 at 14:57:49.242
