   * xtb version 6.5.1 (fef0646) compiled by 'conda@b96dff2e9fd6' on 2023-01-04
          program call               : xtb init.xyz --opt -c 1 -u 0 -P 16 --input xtb.inp

   ID    Z sym.   atoms
    1    7 N      1
    2    6 C      2-13
    3    1 H      14-27

          :  Hamiltonian                  GFN2-xTB          :
 * total energy  :   -35.3189415 Eh     change       -0.2525482E-09 Eh
 * total energy  :   -35.3231545 Eh     change       -0.4212975E-02 Eh
 * total energy  :   -35.3239723 Eh     change       -0.8178249E-03 Eh
 * total energy  :   -35.3240575 Eh     change       -0.8511904E-04 Eh
 * total energy  :   -35.3240899 Eh     change       -0.3239679E-04 Eh
 * total energy  :   -35.3240958 Eh     change       -0.5913334E-05 Eh
 * total energy  :   -35.3241019 Eh     change       -0.6132474E-05 Eh
 * total energy  :   -35.3241063 Eh     change       -0.4373152E-05 Eh
   *** GEOMETRY OPTIMIZATION CONVERGED AFTER 8 ITERATIONS ***

 final structure:
================
27
 xtb: 6.5.1 (fef0646)
N            1.12744407793070        0.45979555496520        0.16243190228943
C            2.57176872471740       -0.00229661512271       -0.03385113516838
C            3.38140571611365        1.18291462283584       -0.52226222703581
C            3.02084026911476       -0.62180087850756        1.26405503445420
C            2.82401182331436       -2.00793333760793        1.44152743843442
C            3.18320695041280       -2.61787922101798        2.60912283870776
C            3.56749735612904        0.12067987976691        2.28180684462401
C            3.95397238755918       -0.48238435996886        3.49459956389022
C            3.75649322652486       -1.87956165805583        3.66504064064290
C            4.14579100966380       -2.48263333568977        4.87824841999078
C            4.70813731200727       -1.73455555553706        5.87537315397789
C            4.90446498130464       -0.35407588076840        5.70657681592477
C            4.53452897896677        0.26148824457657        4.54354630699258
H            0.74887186400155        0.87311475663647       -0.69876056645111
H            1.10860692087118        1.16664350341900        0.90910169572702
H            0.54185505534364       -0.33330996151677        0.45151288188750
H            2.54291663294237       -0.77275961089999       -0.81002900985551
H            3.31648187364252        2.02688548643459        0.15917220759863
H            3.04898493294563        1.50153784268902       -1.50758887260710
H            4.42608358199619        0.89577516620745       -0.60032553469636
H            2.40230362186233       -2.59074824764585        0.63493250317009
H            3.03631633298365       -3.67939620305016        2.73564225496544
H            3.73423745306645        1.18211817645454        2.17397746868129
H            3.99503611577846       -3.54417629006366        5.00360688114278
H            5.00815855782258       -2.20077317998939        6.80103250455432
H            5.35222087652080        0.21742313356610        6.50480595776669
H            4.68701336646345        1.32249796789024        4.41071403039150

          :  Hamiltonian                  GFN2-xTB          :
         :: total energy             -35.324106277457 Eh    ::
         :: gradient norm              0.000729128858 Eh/a0 ::
         :: HOMO-LUMO gap              3.084079724715 eV    ::
         :: SCC energy               -35.965708122400 Eh    ::
         :: -> dispersion             -0.023934470046 Eh    ::
         :: repulsion energy           0.641538059122 Eh    ::

    * Orbital Energies and Occupations

         #    Occupation            Energy/Eh            Energy/eV
      -------------------------------------------------------------
         1        2.0000           -0.8762920             -23.8451
       ...           ...                  ...                  ...
        21        2.0000           -0.6090826             -16.5740
        22        2.0000           -0.6060678             -16.4919
        23        2.0000           -0.6015092             -16.3679
        24        2.0000           -0.5878457             -15.9961
        25        2.0000           -0.5811805             -15.8147
        26        2.0000           -0.5769401             -15.6993
        27        2.0000           -0.5683117             -15.4645
        28        2.0000           -0.5563113             -15.1380
        29        2.0000           -0.5427241             -14.7683
        30        2.0000           -0.5279331             -14.3658
        31        2.0000           -0.5230181             -14.2320
        32        2.0000           -0.5148215             -14.0090
        33        2.0000           -0.4924651             -13.4007 (HOMO)
        34                         -0.3791273             -10.3166 (LUMO)
        35                         -0.3509483              -9.5498
        36                         -0.3034580              -8.2575
        37                         -0.2737725              -7.4497
        38                         -0.2323940              -6.3238
        39                         -0.1726181              -4.6972
        40                         -0.1506832              -4.1003
        41                         -0.0943717              -2.5680
        42                         -0.0774140              -2.1065
        43                         -0.0609735              -1.6592
        44                         -0.0145369              -0.3956
       ...                                ...                  ...
        66                          0.5860637              15.9476
      -------------------------------------------------------------
                  HL-Gap            0.1133378 Eh            3.0841 eV

     #   Z          covCN         q      C6AA      α(0)
     1   7 N        3.483    -0.145    24.119     7.294
     2   6 C        3.783     0.025    20.177     6.399
     3   6 C        3.754    -0.138    23.209     6.870
     4   6 C        2.968    -0.024    28.611     8.774
     5   6 C        2.919    -0.050    29.239     8.867
     6   6 C        2.917    -0.027    28.684     8.782
     7   6 C        2.921    -0.044    29.102     8.847
     8   6 C        2.986     0.017    27.634     8.623
     9   6 C        2.987     0.020    27.552     8.610
    10   6 C        2.917    -0.029    28.723     8.789
    11   6 C        2.916    -0.017    28.432     8.744
    12   6 C        2.916    -0.018    28.463     8.749
    13   6 C        2.918    -0.032    28.805     8.801
    14   1 H        0.859     0.263     0.834     1.431
    15   1 H        0.859     0.266     0.823     1.421
    16   1 H        0.859     0.264     0.832     1.428
    17   1 H        0.924     0.091     1.868     2.138
    18   1 H        0.925     0.069     2.096     2.264
    19   1 H        0.925     0.067     2.121     2.277
    20   1 H        0.925     0.098     1.803     2.100
    21   1 H        0.926     0.034     2.531     2.488
    22   1 H        0.926     0.057     2.230     2.335
    23   1 H        0.926     0.043     2.414     2.430
    24   1 H        0.926     0.053     2.284     2.363
    25   1 H        0.926     0.057     2.229     2.335
    26   1 H        0.926     0.056     2.248     2.345
    27   1 H        0.926     0.045     2.383     2.414

Wiberg/Mayer (AO) data.
largest (>0.10) Wiberg bond orders for each atom

     #   Z sym  total        # sym  WBO       # sym  WBO       # sym  WBO
 ---------------------------------------------------------------------------
     1   7 N    3.661 --    16 H    0.915    14 H    0.914    15 H    0.912
                             2 C    0.867
     2   6 C    3.884 --     3 C    1.017     4 C    0.994    17 H    0.959
                             1 N    0.867
     3   6 C    3.980 --     2 C    1.017    19 H    0.980    18 H    0.977
                            20 H    0.969
     4   6 C    3.971 --     7 C    1.511     5 C    1.290     2 C    0.994
     5   6 C    3.990 --     6 C    1.559     4 C    1.290    21 H    0.968
     6   6 C    3.989 --     5 C    1.559     9 C    1.281    22 H    0.966
                             7 C    0.110
     7   6 C    3.991 --     4 C    1.511     8 C    1.291    23 H    0.963
                             6 C    0.110
     8   6 C    3.991 --     7 C    1.291    13 C    1.276     9 C    1.242
     9   6 C    3.990 --    10 C    1.283     6 C    1.281     8 C    1.242
    10   6 C    3.990 --    11 C    1.555     9 C    1.283    24 H    0.967
                            13 C    0.117
    11   6 C    3.986 --    10 C    1.555    12 C    1.319    25 H    0.969
    12   6 C    3.990 --    13 C    1.558    11 C    1.319    26 H    0.969
    13   6 C    3.990 --    12 C    1.558     8 C    1.276    27 H    0.967
                            10 C    0.117
    14   1 H    0.930 --     1 N    0.914
    15   1 H    0.929 --     1 N    0.912
    16   1 H    0.930 --     1 N    0.915
    17   1 H    0.991 --     2 C    0.959
    18   1 H    0.995 --     3 C    0.977
    19   1 H    0.995 --     3 C    0.980
    20   1 H    0.990 --     3 C    0.969
    21   1 H    0.998 --     5 C    0.968
    22   1 H    0.996 --     6 C    0.966
    23   1 H    0.998 --     7 C    0.963
    24   1 H    0.997 --    10 C    0.967
    25   1 H    0.996 --    11 C    0.969
    26   1 H    0.996 --    12 C    0.969
    27   1 H    0.997 --    13 C    0.967
 ---------------------------------------------------------------------------

molecular dipole:
                 x           y           z       tot (Debye)
 q only:        3.472       0.425       1.617
   full:        3.229       0.477       1.545       9.179

           -------------------------------------------------
          | TOTAL ENERGY              -35.324106277457 Eh   |
          | GRADIENT NORM               0.000729128858 Eh/α |
          | HOMO-LUMO GAP               3.084079724715 eV   |
           -------------------------------------------------

 * finished run on 2023/01/23 at 21:07:37.755
