   * xtb version 6.5.1 (fef0646) compiled by 'conda@b96dff2e9fd6' on 2023-01-04
          program call               : xtb init.xyz --opt -c 1 -u 0 -P 16 --alpb water

   ID    Z sym.   atoms
    1    7 N      1
    2    6 C      2-13
    3    1 H      14-27

      * Solvation model:               ALPB
        Solvent                        water
        Solvent mass                       1.8000E+01 g/mol
          :  Hamiltonian                  GFN2-xTB          :
 * total energy  :   -35.4210311 Eh     change       -0.2964882E-09 Eh
 * total energy  :   -35.4249644 Eh     change       -0.3933265E-02 Eh
 * total energy  :   -35.4256799 Eh     change       -0.7155736E-03 Eh
 * total energy  :   -35.4257603 Eh     change       -0.8035149E-04 Eh
 * total energy  :   -35.4258219 Eh     change       -0.6164234E-04 Eh
 * total energy  :   -35.4258632 Eh     change       -0.4130830E-04 Eh
 * total energy  :   -35.4258996 Eh     change       -0.3639724E-04 Eh
 * total energy  :   -35.4259488 Eh     change       -0.4918655E-04 Eh
 * total energy  :   -35.4259988 Eh     change       -0.4999898E-04 Eh
 * total energy  :   -35.4260357 Eh     change       -0.3686781E-04 Eh
 * total energy  :   -35.4271428 Eh     change       -0.4909133E-04 Eh
 * total energy  :   -35.4271807 Eh     change       -0.3790664E-04 Eh
 * total energy  :   -35.4271992 Eh     change       -0.1847311E-04 Eh
 * total energy  :   -35.4272056 Eh     change       -0.6426405E-05 Eh
 * total energy  :   -35.4272115 Eh     change       -0.5888851E-05 Eh
 * total energy  :   -35.4272175 Eh     change       -0.6039223E-05 Eh
 * total energy  :   -35.4272253 Eh     change       -0.7776974E-05 Eh
 * total energy  :   -35.4272325 Eh     change       -0.7147988E-05 Eh
 * total energy  :   -35.4272354 Eh     change       -0.2929749E-05 Eh
   *** GEOMETRY OPTIMIZATION CONVERGED AFTER 29 ITERATIONS ***

 final structure:
================
27
 xtb: 6.5.1 (fef0646)
N            0.90824473923050        0.06750255271072        0.13146276883962
C            2.38762687855111        0.13467802106388       -0.07562219462565
C            3.08314402483676       -0.55447056387329        1.09211074900270
C            2.75029533902383       -0.49869870366849       -1.39800120725980
C            2.43575487964830       -1.85117022198785       -1.64550670690759
C            2.77268593163065       -2.43868161842666       -2.83092036942636
C            3.40163336822823        0.22848929310683       -2.35967580767902
C            3.76688667544160       -0.35027320910290       -3.59207792537047
C            3.44393650351153       -1.71073963336588       -3.83588243804395
C            3.80865759887434       -2.29018204599202       -5.06843807300270
C            4.46458624882206       -1.55458682876956       -6.01584553773179
C            4.78375199424276       -0.20824903338667       -5.77494454808902
C            4.44223868354597        0.38224254453303       -4.59055381483846
H            0.65644758555212        0.49804507523982        1.02907560048257
H            0.60192308665817       -0.91283591227951        0.14366170002554
H            0.41102111375267        0.55300942358569       -0.62424082411564
H            2.67777748153247        1.18776959536271       -0.09887876659609
H            2.80120535791013       -1.60085057548966        1.15957585602963
H            2.84922560622033       -0.06005619515704        2.03053517398718
H            4.15908848159280       -0.51220351417939        0.95268193203139
H            1.94147203933516       -2.44562351043416       -0.89287674830373
H            2.53403815658574       -3.47506133259773       -3.01861580459727
H            3.65730813369821        1.26403980895478       -2.18997364715152
H            3.56260990548091       -3.32609792921210       -5.25284914943180
H            4.74326651888581       -2.00304280195759       -6.95820389061592
H            5.30305925116702        0.35455137059988       -6.53661988056717
H            4.68855441604052        1.41755594472219       -4.40527644604433

          :  Hamiltonian                  GFN2-xTB          :
         :: total energy             -35.427235390620 Eh    ::
         :: gradient norm              0.000275871926 Eh/a0 ::
         :: HOMO-LUMO gap              3.230889850387 eV    ::
         :: SCC energy               -36.071154371694 Eh    ::
         :: -> dispersion             -0.023994177352 Eh    ::
         :: -> Gsolv                  -0.113848484181 Eh    ::
         :: repulsion energy           0.643886977827 Eh    ::

    * Orbital Energies and Occupations

         #    Occupation            Energy/Eh            Energy/eV
      -------------------------------------------------------------
         1        2.0000           -0.6966962             -18.9581
       ...           ...                  ...                  ...
        21        2.0000           -0.4894063             -13.3174
        22        2.0000           -0.4766288             -12.9697
        23        2.0000           -0.4736064             -12.8875
        24        2.0000           -0.4717164             -12.8361
        25        2.0000           -0.4636013             -12.6152
        26        2.0000           -0.4586110             -12.4794
        27        2.0000           -0.4529892             -12.3265
        28        2.0000           -0.4410724             -12.0022
        29        2.0000           -0.4295027             -11.6874
        30        2.0000           -0.4215618             -11.4713
        31        2.0000           -0.4166994             -11.3390
        32        2.0000           -0.4036559             -10.9840
        33        2.0000           -0.3828800             -10.4187 (HOMO)
        34                         -0.2641470              -7.1878 (LUMO)
        35                         -0.2350396              -6.3958
        36                         -0.1928581              -5.2479
        37                         -0.1538083              -4.1853
        38                         -0.0652753              -1.7762
        39                         -0.0417525              -1.1361
        40                          0.0485232               1.3204
        41                          0.0637410               1.7345
        42                          0.0952531               2.5920
        43                          0.1016902               2.7671
        44                          0.1092558               2.9730
       ...                                ...                  ...
        66                          0.6930125              18.8578
      -------------------------------------------------------------
                  HL-Gap            0.1187330 Eh            3.2309 eV

     #   Z          covCN         q      C6AA      α(0)
     1   7 N        3.486    -0.169    24.640     7.372
     2   6 C        3.786     0.027    20.132     6.391
     3   6 C        3.756    -0.149    23.439     6.903
     4   6 C        2.969     0.002    27.980     8.676
     5   6 C        2.918    -0.047    29.161     8.855
     6   6 C        2.917    -0.038    28.953     8.824
     7   6 C        2.923    -0.048    29.197     8.861
     8   6 C        2.986     0.012    27.735     8.639
     9   6 C        2.987     0.011    27.771     8.644
    10   6 C        2.918    -0.040    28.990     8.829
    11   6 C        2.916    -0.033    28.824     8.804
    12   6 C        2.916    -0.033    28.832     8.805
    13   6 C        2.918    -0.041    29.021     8.834
    14   1 H        0.859     0.316     0.669     1.281
    15   1 H        0.859     0.302     0.706     1.316
    16   1 H        0.859     0.310     0.685     1.296
    17   1 H        0.924     0.105     1.742     2.064
    18   1 H        0.925     0.077     2.013     2.219
    19   1 H        0.925     0.079     1.987     2.204
    20   1 H        0.925     0.070     2.086     2.259
    21   1 H        0.926     0.066     2.130     2.282
    22   1 H        0.926     0.039     2.461     2.453
    23   1 H        0.926     0.055     2.263     2.352
    24   1 H        0.926     0.033     2.540     2.492
    25   1 H        0.926     0.026     2.648     2.545
    26   1 H        0.926     0.028     2.616     2.529
    27   1 H        0.926     0.042     2.427     2.436

Wiberg/Mayer (AO) data.
largest (>0.10) Wiberg bond orders for each atom

     #   Z sym  total        # sym  WBO       # sym  WBO       # sym  WBO
 ---------------------------------------------------------------------------
     1   7 N    3.649 --     2 C    0.940    16 H    0.890    15 H    0.889
                            14 H    0.885
     2   6 C    3.936 --     3 C    1.004     4 C    0.995    17 H    0.956
                             1 N    0.940
     3   6 C    3.980 --     2 C    1.004    18 H    0.978    20 H    0.978
                            19 H    0.978
     4   6 C    3.986 --     7 C    1.529     5 C    1.294     2 C    0.995
     5   6 C    3.988 --     6 C    1.563     4 C    1.294    21 H    0.962
     6   6 C    3.991 --     5 C    1.563     9 C    1.276    22 H    0.968
                             7 C    0.115
     7   6 C    3.989 --     4 C    1.529     8 C    1.281    23 H    0.964
                             6 C    0.115
     8   6 C    3.990 --     7 C    1.281    13 C    1.278     9 C    1.252
     9   6 C    3.990 --    10 C    1.280     6 C    1.276     8 C    1.252
    10   6 C    3.991 --    11 C    1.557     9 C    1.280    24 H    0.968
                            13 C    0.119
    11   6 C    3.990 --    10 C    1.557    12 C    1.321    25 H    0.971
    12   6 C    3.992 --    13 C    1.558    11 C    1.321    26 H    0.971
    13   6 C    3.989 --    12 C    1.558     8 C    1.278    27 H    0.968
                            10 C    0.119
    14   1 H    0.900 --     1 N    0.885
    15   1 H    0.908 --     1 N    0.889
    16   1 H    0.904 --     1 N    0.890
    17   1 H    0.989 --     2 C    0.956
    18   1 H    0.994 --     3 C    0.978
    19   1 H    0.993 --     3 C    0.978
    20   1 H    0.995 --     3 C    0.978
    21   1 H    0.995 --     5 C    0.962
    22   1 H    0.998 --     6 C    0.968
    23   1 H    0.997 --     7 C    0.964
    24   1 H    0.998 --    10 C    0.968
    25   1 H    0.999 --    11 C    0.971
    26   1 H    0.999 --    12 C    0.971
    27   1 H    0.998 --    13 C    0.968
 ---------------------------------------------------------------------------

molecular dipole:
                 x           y           z       tot (Debye)
 q only:        1.989       0.088       0.514
   full:        2.033       0.019       0.229       5.199

           -------------------------------------------------
          | TOTAL ENERGY              -35.427235390620 Eh   |
          | GRADIENT NORM               0.000275871926 Eh/α |
          | HOMO-LUMO GAP               3.230889850387 eV   |
           -------------------------------------------------

 * finished run on 2023/01/24 at 16:53:42.538
