   * xtb version 6.5.1 (fef0646) compiled by 'conda@b96dff2e9fd6' on 2023-01-04
          program call               : xtb init.xyz --opt -c 1 -u 0 -P 16 --alpb water

   ID    Z sym.   atoms
    1    7 N      1
    2    6 C      2-5
    3    1 H      6-15

      * Solvation model:               ALPB
        Solvent                        water
        Solvent mass                       1.8000E+01 g/mol
          :  Hamiltonian                  GFN2-xTB          :
 * total energy  :   -16.2372504 Eh     change       -0.1797673E-11 Eh
 * total energy  :   -16.2412874 Eh     change       -0.4037028E-02 Eh
 * total energy  :   -16.2415802 Eh     change       -0.2927891E-03 Eh
 * total energy  :   -16.2418495 Eh     change       -0.2692941E-03 Eh
 * total energy  :   -16.2419631 Eh     change       -0.1135830E-03 Eh
 * total energy  :   -16.2420612 Eh     change       -0.9809469E-04 Eh
 * total energy  :   -16.2421490 Eh     change       -0.8783095E-04 Eh
 * total energy  :   -16.2422038 Eh     change       -0.5479603E-04 Eh
 * total energy  :   -16.2422375 Eh     change       -0.3365865E-04 Eh
 * total energy  :   -16.2422482 Eh     change       -0.1072391E-04 Eh
 * total energy  :   -16.2422555 Eh     change       -0.7306080E-05 Eh
 * total energy  :   -16.2422612 Eh     change       -0.5655084E-05 Eh
 * total energy  :   -16.2422677 Eh     change       -0.6522824E-05 Eh
 * total energy  :   -16.2422738 Eh     change       -0.6064625E-05 Eh
 * total energy  :   -16.2422760 Eh     change       -0.2257601E-05 Eh
   *** GEOMETRY OPTIMIZATION CONVERGED AFTER 15 ITERATIONS ***

 final structure:
================
15
 xtb: 6.5.1 (fef0646)
N            1.04537701684974       -0.02635634225257        0.20095986932071
C            2.51638826805899       -0.01841953889482        0.02670374164892
C            3.26656942300238       -1.11565967756566        0.79348397487040
C            4.18332585917637       -0.04003897318955        1.40338241887938
C            3.25954007029822        1.05280081101914        0.83570814226018
H            0.63315496649032       -0.85343769952355       -0.24789323064836
H            0.62874193316425        0.81770801331339       -0.21085173877932
H            0.81512268058438       -0.04873720600757        1.20256616121653
H            2.75003886613162        0.00331503775407       -1.03693889868399
H            3.76141878174286       -1.86755906933051        0.18561256033357
H            2.65513616260797       -1.61635231940339        1.53937539145959
H            5.17841132501237       -0.02892990617549        0.96755068492574
H            4.28244974668128       -0.06089181003550        2.48502270482044
H            3.74910539190983        1.83116669412986        0.25761345312137
H            2.64449950828942        1.51993198616213        1.60040476525483

          :  Hamiltonian                  GFN2-xTB          :
         :: total energy             -16.242276014064 Eh    ::
         :: gradient norm              0.000343986413 Eh/a0 ::
         :: HOMO-LUMO gap             10.291188573900 eV    ::
         :: SCC energy               -16.472694391292 Eh    ::
         :: -> dispersion             -0.006726471411 Eh    ::
         :: -> Gsolv                  -0.113728744605 Eh    ::
         :: repulsion energy           0.230407334560 Eh    ::

    * Orbital Energies and Occupations

         #    Occupation            Energy/Eh            Energy/eV
      -------------------------------------------------------------
         1        2.0000           -0.6959804             -18.9386
       ...           ...                  ...                  ...
         3        2.0000           -0.6253232             -17.0159
         4        2.0000           -0.6108575             -16.6223
         5        2.0000           -0.5920862             -16.1115
         6        2.0000           -0.5746906             -15.6381
         7        2.0000           -0.5667787             -15.4228
         8        2.0000           -0.5437404             -14.7959
         9        2.0000           -0.5251573             -14.2903
        10        2.0000           -0.4933738             -13.4254
        11        2.0000           -0.4859499             -13.2234
        12        2.0000           -0.4750921             -12.9279
        13        2.0000           -0.4424533             -12.0398
        14        2.0000           -0.4336785             -11.8010
        15        2.0000           -0.4261874             -11.5971 (HOMO)
        16                         -0.0479932              -1.3060 (LUMO)
        17                          0.0202561               0.5512
        18                          0.0227166               0.6181
        19                          0.0404670               1.1012
        20                          0.0611872               1.6650
        21                          0.1016969               2.7673
        22                          0.1446216               3.9354
        23                          0.1525259               4.1504
        24                          0.1652609               4.4970
        25                          0.1888543               5.1390
        26                          0.2049261               5.5763
       ...                                ...                  ...
        30                          0.3778925              10.2830
      -------------------------------------------------------------
                  HL-Gap            0.3781942 Eh           10.2912 eV

     #   Z          covCN         q      C6AA      α(0)
     1   7 N        3.484    -0.170    24.658     7.375
     2   6 C        3.970     0.022    20.127     6.374
     3   6 C        3.980    -0.088    22.093     6.678
     4   6 C        3.989    -0.072    21.789     6.632
     5   6 C        3.980    -0.088    22.094     6.678
     6   1 H        0.859     0.315     0.670     1.283
     7   1 H        0.859     0.315     0.671     1.283
     8   1 H        0.859     0.307     0.693     1.304
     9   1 H        0.925     0.101     1.778     2.085
    10   1 H        0.925     0.059     2.208     2.324
    11   1 H        0.925     0.075     2.034     2.230
    12   1 H        0.925     0.043     2.414     2.430
    13   1 H        0.925     0.046     2.370     2.408
    14   1 H        0.925     0.059     2.208     2.324
    15   1 H        0.925     0.075     2.034     2.230

Wiberg/Mayer (AO) data.
largest (>0.10) Wiberg bond orders for each atom

     #   Z sym  total        # sym  WBO       # sym  WBO       # sym  WBO
 ---------------------------------------------------------------------------
     1   7 N    3.650 --     2 C    0.955     8 H    0.888     6 H    0.885
                             7 H    0.885
     2   6 C    3.932 --     5 C    0.997     3 C    0.997     9 H    0.962
                             1 N    0.955
     3   6 C    3.985 --     4 C    1.004     2 C    0.997    10 H    0.980
                            11 H    0.974
     4   6 C    3.991 --     3 C    1.004     5 C    1.004    12 H    0.983
                            13 H    0.982
     5   6 C    3.985 --     4 C    1.004     2 C    0.997    14 H    0.980
                            15 H    0.974
     6   1 H    0.901 --     1 N    0.885
     7   1 H    0.901 --     1 N    0.885
     8   1 H    0.906 --     1 N    0.888
     9   1 H    0.990 --     2 C    0.962
    10   1 H    0.996 --     3 C    0.980
    11   1 H    0.994 --     3 C    0.974
    12   1 H    0.998 --     4 C    0.983
    13   1 H    0.998 --     4 C    0.982
    14   1 H    0.996 --     5 C    0.980
    15   1 H    0.994 --     5 C    0.974
 ---------------------------------------------------------------------------

molecular dipole:
                 x           y           z       tot (Debye)
 q only:        2.250      -0.051       0.491
   full:        2.158      -0.051       0.486       5.625

           -------------------------------------------------
          | TOTAL ENERGY              -16.242276014064 Eh   |
          | GRADIENT NORM               0.000343986413 Eh/α |
          | HOMO-LUMO GAP              10.291188573900 eV   |
           -------------------------------------------------

 * finished run on 2023/01/24 at 14:55:52.810
