   * xtb version 6.5.1 (fef0646) compiled by 'conda@b96dff2e9fd6' on 2023-01-04
          program call               : xtb init.xyz --opt -c 1 -u 0 -P 16 --input xtb.inp

   ID    Z sym.   atoms
    1    7 N      1
    2    6 C      2-5
    3    1 H      6-15

          :  Hamiltonian                  GFN2-xTB          :
 * total energy  :   -16.1288227 Eh     change       -0.1659117E-11 Eh
 * total energy  :   -16.1331087 Eh     change       -0.4286036E-02 Eh
 * total energy  :   -16.1335098 Eh     change       -0.4010867E-03 Eh
 * total energy  :   -16.1338330 Eh     change       -0.3232419E-03 Eh
 * total energy  :   -16.1339351 Eh     change       -0.1020673E-03 Eh
 * total energy  :   -16.1340267 Eh     change       -0.9155519E-04 Eh
 * total energy  :   -16.1341162 Eh     change       -0.8950223E-04 Eh
 * total energy  :   -16.1341826 Eh     change       -0.6638114E-04 Eh
 * total energy  :   -16.1342215 Eh     change       -0.3890505E-04 Eh
 * total energy  :   -16.1342485 Eh     change       -0.2699816E-04 Eh
 * total energy  :   -16.1342577 Eh     change       -0.9276084E-05 Eh
 * total energy  :   -16.1342634 Eh     change       -0.5705297E-05 Eh
 * total energy  :   -16.1342682 Eh     change       -0.4757073E-05 Eh
   *** GEOMETRY OPTIMIZATION CONVERGED AFTER 13 ITERATIONS ***

 final structure:
================
15
 xtb: 6.5.1 (fef0646)
N            1.03886144050285       -0.02549729567611        0.19076802829605
C            2.53172006142939       -0.01572646071149        0.02987825215935
C            3.26824850643769       -1.11507740613890        0.79893863357288
C            4.19442770575117       -0.04192262605715        1.40018516349107
C            3.26131750190949        1.05181646076010        0.84887329890825
H            0.63390174341471       -0.86886479295710       -0.23491978583062
H            0.61883407124984        0.80442732857137       -0.24679804023276
H            0.80922235142657       -0.02007336502405        1.19400892743630
H            2.75494119024316        0.00910938148707       -1.03673286390465
H            3.74815616744311       -1.87699832089306        0.19190085352311
H            2.64816341261618       -1.60474180637339        1.54702011957595
H            5.17841844445692       -0.02817705409455        0.94358612584820
H            4.30861199744176       -0.06642580852399        2.47881543161821
H            3.73616358258026        1.84442090916140        0.27821645262294
H            2.63829182309688        1.50227085646984        1.61895940291570

          :  Hamiltonian                  GFN2-xTB          :
         :: total energy             -16.134268193303 Eh    ::
         :: gradient norm              0.000755534827 Eh/a0 ::
         :: HOMO-LUMO gap              8.695335338063 eV    ::
         :: SCC energy               -16.363704432987 Eh    ::
         :: -> dispersion             -0.006651258734 Eh    ::
         :: repulsion energy           0.229425156315 Eh    ::

    * Orbital Energies and Occupations

         #    Occupation            Energy/Eh            Energy/eV
      -------------------------------------------------------------
         1        2.0000           -0.8940875             -24.3294
       ...           ...                  ...                  ...
         3        2.0000           -0.8093095             -22.0224
         4        2.0000           -0.8038397             -21.8736
         5        2.0000           -0.7939569             -21.6047
         6        2.0000           -0.7560701             -20.5737
         7        2.0000           -0.7327869             -19.9401
         8        2.0000           -0.7102913             -19.3280
         9        2.0000           -0.6891269             -18.7521
        10        2.0000           -0.6547961             -17.8179
        11        2.0000           -0.6537403             -17.7892
        12        2.0000           -0.6359864             -17.3061
        13        2.0000           -0.6012201             -16.3600
        14        2.0000           -0.5942411             -16.1701
        15        2.0000           -0.5808928             -15.8069 (HOMO)
        16                         -0.2613451              -7.1116 (LUMO)
        17                         -0.1718234              -4.6756
        18                         -0.1459963              -3.9728
        19                         -0.1403109              -3.8181
        20                         -0.1009983              -2.7483
        21                         -0.0946827              -2.5764
        22                         -0.0491366              -1.3371
        23                         -0.0390227              -1.0619
        24                         -0.0101703              -0.2767
        25                          0.0343871               0.9357
        26                          0.0413976               1.1265
       ...                                ...                  ...
        30                          0.2190182               5.9598
      -------------------------------------------------------------
                  HL-Gap            0.3195477 Eh            8.6953 eV

     #   Z          covCN         q      C6AA      α(0)
     1   7 N        3.481    -0.136    23.933     7.266
     2   6 C        3.979     0.016    20.235     6.391
     3   6 C        3.982    -0.081    21.961     6.658
     4   6 C        4.000    -0.068    21.714     6.620
     5   6 C        3.982    -0.081    21.958     6.657
     6   1 H        0.859     0.269     0.813     1.413
     7   1 H        0.859     0.269     0.814     1.414
     8   1 H        0.859     0.273     0.799     1.400
     9   1 H        0.925     0.096     1.822     2.111
    10   1 H        0.925     0.080     1.983     2.202
    11   1 H        0.925     0.065     2.137     2.286
    12   1 H        0.925     0.078     1.998     2.211
    13   1 H        0.925     0.074     2.045     2.236
    14   1 H        0.925     0.080     1.982     2.202
    15   1 H        0.925     0.065     2.139     2.287

Wiberg/Mayer (AO) data.
largest (>0.10) Wiberg bond orders for each atom

     #   Z sym  total        # sym  WBO       # sym  WBO       # sym  WBO
 ---------------------------------------------------------------------------
     1   7 N    3.670 --     7 H    0.912     6 H    0.911     8 H    0.906
                             2 C    0.901
     2   6 C    3.887 --     3 C    0.998     5 C    0.998     9 H    0.963
                             1 N    0.901
     3   6 C    3.977 --     4 C    1.000     2 C    0.998    10 H    0.975
                            11 H    0.973
     4   6 C    3.981 --     5 C    1.000     3 C    1.000    13 H    0.979
                            12 H    0.978
     5   6 C    3.977 --     4 C    1.000     2 C    0.998    14 H    0.975
                            15 H    0.973
     6   1 H    0.928 --     1 N    0.911
     7   1 H    0.928 --     1 N    0.912
     8   1 H    0.925 --     1 N    0.906
     9   1 H    0.991 --     2 C    0.963
    10   1 H    0.994 --     3 C    0.975
    11   1 H    0.996 --     3 C    0.973
    12   1 H    0.994 --     4 C    0.978
    13   1 H    0.995 --     4 C    0.979
    14   1 H    0.994 --     5 C    0.975
    15   1 H    0.996 --     5 C    0.973
 ---------------------------------------------------------------------------

molecular dipole:
                 x           y           z       tot (Debye)
 q only:        2.976      -0.051       0.652
   full:        2.632      -0.051       0.583       6.854

           -------------------------------------------------
          | TOTAL ENERGY              -16.134268193303 Eh   |
          | GRADIENT NORM               0.000755534827 Eh/α |
          | HOMO-LUMO GAP               8.695335338063 eV   |
           -------------------------------------------------

 * finished run on 2023/01/23 at 18:41:53.402
