   * xtb version 6.5.1 (fef0646) compiled by 'conda@b96dff2e9fd6' on 2023-01-04
          program call               : xtb init.xyz --opt -c 0 -u 0 -P 16

   ID    Z sym.   atoms
    1    7 N      1
    2    6 C      2-13
    3   17 Cl     14
    4    1 H      15-42

          :  Hamiltonian                  GFN2-xTB          :
 * total energy  :   -47.4431483 Eh     change       -0.2914973E-08 Eh
 * total energy  :   -47.4494373 Eh     change       -0.6288963E-02 Eh
 * total energy  :   -47.4549810 Eh     change       -0.5543694E-02 Eh
 * total energy  :   -47.4581847 Eh     change       -0.3203684E-02 Eh
 * total energy  :   -47.4602202 Eh     change       -0.2035507E-02 Eh
 * total energy  :   -47.4620382 Eh     change       -0.1818027E-02 Eh
 * total energy  :   -47.4633065 Eh     change       -0.1268324E-02 Eh
 * total energy  :   -47.4641550 Eh     change       -0.8484465E-03 Eh
 * total energy  :   -47.4645586 Eh     change       -0.4036129E-03 Eh
 * total energy  :   -47.4646716 Eh     change       -0.1130169E-03 Eh
 * total energy  :   -47.4655720 Eh     change       -0.2667597E-04 Eh
 * total energy  :   -47.4655968 Eh     change       -0.2478570E-04 Eh
 * total energy  :   -47.4656133 Eh     change       -0.1648276E-04 Eh
 * total energy  :   -47.4656280 Eh     change       -0.1465848E-04 Eh
 * total energy  :   -47.4656395 Eh     change       -0.1157063E-04 Eh
 * total energy  :   -47.4656539 Eh     change       -0.1441216E-04 Eh
 * total energy  :   -47.4656654 Eh     change       -0.1142506E-04 Eh
 * total energy  :   -47.4656710 Eh     change       -0.5658745E-05 Eh
 * total energy  :   -47.4656754 Eh     change       -0.4414322E-05 Eh
   *** GEOMETRY OPTIMIZATION CONVERGED AFTER 38 ITERATIONS ***

 final structure:
================
42
 xtb: 6.5.1 (fef0646)
N            2.71988657902302        1.79721372956737        1.88854007435853
C            4.13449017809746        1.89685672155868        2.23694542792820
C            4.49092193530176        1.32024919936413        3.61106325225966
C            4.17961790338845       -0.17055916520559        3.76744346877410
C            4.89945188781575       -1.08810557770693        2.77598179007148
C            6.42604213036312       -1.00508925843749        2.81355476808691
C            7.02273495784867       -1.39694510932490        4.16356977554845
C            8.54547715210702       -1.49308160794566        4.10466957008095
C            9.14591669959417       -1.88878799852372        5.45123266629813
C           10.66647196059975       -2.01151025124962        5.39212158195455
C           11.25766587895850       -2.42761038523644        6.73661445156317
C           12.77783647214013       -2.55852132262390        6.68629800693195
C           13.35301415181878       -2.98107022053101        8.03260063566261
Cl           2.18491495901380        3.04066889996795       -0.70751694298880
H            2.44286931183951        2.46237880964265        0.50910730433596
H            2.14528587481231        2.25831237109076        2.58665108886765
H            2.43394148754966        0.82611667133917        1.82548154316973
H            4.40115894781305        2.95615748244085        2.21275154900592
H            4.70159511510907        1.39150167664219        1.45411251300811
H            3.93687232779183        1.87034393132077        4.37763264849324
H            5.55198242784546        1.49347016800779        3.79104757714767
H            3.10236804064131       -0.33022153932817        3.66251178320127
H            4.44147100766109       -0.46820240018213        4.78409397459833
H            4.56427292601057       -0.86589423298038        1.76040729690856
H            4.60149399292720       -2.11667885310225        2.99503957007102
H            6.75250258717435        0.00242029489611        2.54983808048294
H            6.81844010852540       -1.68097405710750        2.04963195168084
H            6.61413256654875       -2.36268305827446        4.47105086712759
H            6.74500901618530       -0.66199211921757        4.92133883178464
H            8.95748577373416       -0.53020507714557        3.79315870389388
H            8.83160970673096       -2.23196119899992        3.35242746345168
H            8.72066755131386       -2.84452927770830        5.76717457827257
H            8.87327088589553       -1.14328114246190        6.20223146762484
H           11.09548377797450       -1.05359427232455        5.08833423999817
H           10.93941684297555       -2.74939062312802        4.63384718188970
H           10.82496365422278       -3.38442643080333        7.03906180664163
H           10.98531148424936       -1.68894437464483        7.49447834616495
H           13.21306583484162       -1.60150647134924        6.38937936967210
H           13.05143523070381       -3.29515314362369        5.92727086983933
H           13.10545100331395       -2.24971476336886        8.79922062738872
H           14.43569847712520       -3.06807432952448        7.97810201528550
H           12.94595119241706       -3.94349169377639        8.33544822346381

          :  Hamiltonian                  GFN2-xTB          :
         :: total energy             -47.465675441201 Eh    ::
         :: gradient norm              0.000358295198 Eh/a0 ::
         :: HOMO-LUMO gap              9.171240285431 eV    ::
         :: SCC energy               -48.080509501420 Eh    ::
         :: -> dispersion             -0.029009275888 Eh    ::
         :: repulsion energy           0.614997143504 Eh    ::

    * Orbital Energies and Occupations

         #    Occupation            Energy/Eh            Energy/eV
      -------------------------------------------------------------
         1        2.0000           -1.0149660             -27.6186
       ...           ...                  ...                  ...
        32        2.0000           -0.4512788             -12.2799
        33        2.0000           -0.4438458             -12.0777
        34        2.0000           -0.4404641             -11.9856
        35        2.0000           -0.4388545             -11.9418
        36        2.0000           -0.4333314             -11.7915
        37        2.0000           -0.4303210             -11.7096
        38        2.0000           -0.4284835             -11.6596
        39        2.0000           -0.4235386             -11.5251
        40        2.0000           -0.4209057             -11.4534
        41        2.0000           -0.4181118             -11.3774
        42        2.0000           -0.3977174             -10.8224
        43        2.0000           -0.3920724             -10.6688
        44        2.0000           -0.3920568             -10.6684 (HOMO)
        45                         -0.0550199              -1.4972 (LUMO)
        46                          0.0257114               0.6996
        47                          0.0353658               0.9624
        48                          0.0683811               1.8607
        49                          0.0694292               1.8893
        50                          0.0698899               1.9018
        51                          0.0742188               2.0196
        52                          0.0752958               2.0489
        53                          0.0753262               2.0497
        54                          0.0845928               2.3019
        55                          0.0950228               2.5857
       ...                                ...                  ...
        89                          0.3194176               8.6918
      -------------------------------------------------------------
                  HL-Gap            0.3370369 Eh            9.1712 eV

     #   Z          covCN         q      C6AA      α(0)
     1   7 N        2.697    -0.306    27.870     7.841
     2   6 C        3.731     0.000    20.673     6.490
     3   6 C        3.799    -0.069    21.817     6.650
     4   6 C        3.800    -0.057    21.609     6.619
     5   6 C        3.800    -0.060    21.650     6.625
     6   6 C        3.802    -0.060    21.645     6.624
     7   6 C        3.802    -0.059    21.630     6.621
     8   6 C        3.803    -0.059    21.631     6.621
     9   6 C        3.803    -0.058    21.617     6.619
    10   6 C        3.803    -0.059    21.626     6.621
    11   6 C        3.803    -0.059    21.634     6.622
    12   6 C        3.801    -0.053    21.525     6.606
    13   6 C        3.752    -0.102    22.513     6.766
    14  17 Cl       0.838    -0.484   115.111    16.413
    15   1 H        0.905     0.329     0.630     1.242
    16   1 H        0.860     0.165     1.300     1.786
    17   1 H        0.860     0.170     1.273     1.768
    18   1 H        0.924     0.050     2.321     2.382
    19   1 H        0.924     0.057     2.238     2.339
    20   1 H        0.924     0.031     2.579     2.511
    21   1 H        0.925     0.045     2.387     2.416
    22   1 H        0.924     0.024     2.670     2.555
    23   1 H        0.924     0.036     2.497     2.471
    24   1 H        0.924     0.031     2.568     2.506
    25   1 H        0.924     0.032     2.565     2.504
    26   1 H        0.924     0.032     2.556     2.500
    27   1 H        0.924     0.031     2.567     2.505
    28   1 H        0.924     0.030     2.586     2.515
    29   1 H        0.924     0.030     2.581     2.512
    30   1 H        0.924     0.029     2.606     2.524
    31   1 H        0.924     0.030     2.593     2.518
    32   1 H        0.924     0.029     2.597     2.520
    33   1 H        0.924     0.028     2.610     2.526
    34   1 H        0.924     0.029     2.603     2.523
    35   1 H        0.924     0.029     2.599     2.521
    36   1 H        0.924     0.030     2.588     2.516
    37   1 H        0.924     0.030     2.592     2.518
    38   1 H        0.924     0.029     2.604     2.524
    39   1 H        0.924     0.029     2.603     2.523
    40   1 H        0.925     0.033     2.540     2.493
    41   1 H        0.925     0.033     2.543     2.494
    42   1 H        0.925     0.033     2.539     2.492

Wiberg/Mayer (AO) data.
largest (>0.10) Wiberg bond orders for each atom

     #   Z sym  total        # sym  WBO       # sym  WBO       # sym  WBO
 ---------------------------------------------------------------------------
     1   7 N    3.248 --     2 C    1.008    16 H    0.958    17 H    0.955
                            15 H    0.208
     2   6 C    3.973 --     1 N    1.008     3 C    1.000    18 H    0.974
                            19 H    0.971
     3   6 C    3.997 --     4 C    1.008     2 C    1.000    20 H    0.976
                            21 H    0.972
     4   6 C    3.997 --     3 C    1.008     5 C    1.007    23 H    0.975
                            22 H    0.975
     5   6 C    3.997 --     4 C    1.007     6 C    1.007    25 H    0.977
                            24 H    0.975
     6   6 C    3.997 --     7 C    1.008     5 C    1.007    27 H    0.976
                            26 H    0.975
     7   6 C    3.997 --     6 C    1.008     8 C    1.007    28 H    0.977
                            29 H    0.976
     8   6 C    3.997 --     9 C    1.007     7 C    1.007    30 H    0.978
                            31 H    0.977
     9   6 C    3.997 --     8 C    1.007    10 C    1.007    33 H    0.978
                            32 H    0.977
    10   6 C    3.997 --    11 C    1.007     9 C    1.007    34 H    0.978
                            35 H    0.977
    11   6 C    3.997 --    12 C    1.008    10 C    1.007    37 H    0.978
                            36 H    0.977
    12   6 C    3.998 --    13 C    1.019    11 C    1.008    38 H    0.979
                            39 H    0.979
    13   6 C    3.997 --    12 C    1.019    40 H    0.988    42 H    0.988
                            41 H    0.988
    14  17 Cl   0.767 --    15 H    0.680
    15   1 H    0.892 --    14 Cl   0.680     1 N    0.208
    16   1 H    0.973 --     1 N    0.958
    17   1 H    0.971 --     1 N    0.955
    18   1 H    0.997 --     2 C    0.974
    19   1 H    0.997 --     2 C    0.971
    20   1 H    0.999 --     3 C    0.976
    21   1 H    0.998 --     3 C    0.972
    22   1 H    0.999 --     4 C    0.975
    23   1 H    0.999 --     4 C    0.975
    24   1 H    0.999 --     5 C    0.975
    25   1 H    0.999 --     5 C    0.977
    26   1 H    0.999 --     6 C    0.975
    27   1 H    0.999 --     6 C    0.976
    28   1 H    0.999 --     7 C    0.977
    29   1 H    0.999 --     7 C    0.976
    30   1 H    0.999 --     8 C    0.978
    31   1 H    0.999 --     8 C    0.977
    32   1 H    0.999 --     9 C    0.977
    33   1 H    0.999 --     9 C    0.978
    34   1 H    0.999 --    10 C    0.978
    35   1 H    0.999 --    10 C    0.977
    36   1 H    0.999 --    11 C    0.977
    37   1 H    0.999 --    11 C    0.978
    38   1 H    0.999 --    12 C    0.979
    39   1 H    0.999 --    12 C    0.979
    40   1 H    0.999 --    13 C    0.988
    41   1 H    0.999 --    13 C    0.988
    42   1 H    0.999 --    13 C    0.988
 ---------------------------------------------------------------------------

molecular dipole:
                 x           y           z       tot (Debye)
 q only:        0.581      -0.932       1.844
   full:        0.451      -0.909       1.774       5.193

           -------------------------------------------------
          | TOTAL ENERGY              -47.465675441201 Eh   |
          | GRADIENT NORM               0.000358295198 Eh/α |
          | HOMO-LUMO GAP               9.171240285431 eV   |
           -------------------------------------------------

 * finished run on 2023/01/23 at 14:17:26.447
