   * xtb version 6.5.1 (fef0646) compiled by 'conda@b96dff2e9fd6' on 2023-01-04
          program call               : xtb init.xyz --opt -c 0 -u 0 -P 16 --alpb water

   ID    Z sym.   atoms
    1    7 N      1
    2    6 C      2-21
    3   16 S      22-25
    4   17 Cl     26
    5    1 H      27-46

      * Solvation model:               ALPB
        Solvent                        water
        Solvent mass                       1.8000E+01 g/mol
          :  Hamiltonian                  GFN2-xTB          :
 * total energy  :   -73.4930304 Eh     change       -0.1353513E-08 Eh
 * total energy  :   -73.5026148 Eh     change       -0.9584438E-02 Eh
 * total energy  :   -73.5058267 Eh     change       -0.3211859E-02 Eh
 * total energy  :   -73.5067101 Eh     change       -0.8834515E-03 Eh
 * total energy  :   -73.5074301 Eh     change       -0.7199867E-03 Eh
 * total energy  :   -73.5079766 Eh     change       -0.5465071E-03 Eh
 * total energy  :   -73.5085204 Eh     change       -0.5437538E-03 Eh
 * total energy  :   -73.5089392 Eh     change       -0.4187895E-03 Eh
 * total energy  :   -73.5091890 Eh     change       -0.2498795E-03 Eh
 * total energy  :   -73.5094144 Eh     change       -0.2253745E-03 Eh
 * total energy  :   -73.5130684 Eh     change       -0.1931928E-04 Eh
 * total energy  :   -73.5130831 Eh     change       -0.1467482E-04 Eh
 * total energy  :   -73.5131002 Eh     change       -0.1713021E-04 Eh
 * total energy  :   -73.5131074 Eh     change       -0.7232119E-05 Eh
 * total energy  :   -73.5131196 Eh     change       -0.1220991E-04 Eh
 * total energy  :   -73.5131308 Eh     change       -0.1118669E-04 Eh
 * total energy  :   -73.5131407 Eh     change       -0.9872284E-05 Eh
 * total energy  :   -73.5131505 Eh     change       -0.9782188E-05 Eh
 * total energy  :   -73.5131552 Eh     change       -0.4778388E-05 Eh
   *** GEOMETRY OPTIMIZATION CONVERGED AFTER 63 ITERATIONS ***

 final structure:
================
46
 xtb: 6.5.1 (fef0646)
N            1.40268955294324        0.94794805993883        2.82633451608211
C            2.73041309818156        1.09817004644852        2.20319980901778
C            3.51140206347272       -0.21108429286262        2.33156324468422
C            4.81157427683193       -0.12797178611306        1.61256327574033
C            5.22849462473635       -0.81687394798330        0.51404982485469
C            6.52196541777844       -0.46679732491669        0.08692141051665
C            7.10399056780833        0.50559891471786        0.86216107817265
C            8.39618769309517        1.09334353612726        0.72765526280239
C            9.36883271670652        0.81270913630083       -0.20117450998857
C           10.54585503496169        1.56530896359070       -0.05492185753835
C           11.72464285189235        1.41120038790010       -0.95434955485799
C           10.47890133587717        2.44626276850611        1.00901928850977
C           11.43831499981867        3.37475779214203        1.49918976963627
C           11.30018777699421        4.20894057766159        2.58636082062236
C           12.41579243426706        5.01560863959564        2.82707127967894
C           13.43883229673850        4.81808812643559        1.92910553232059
C           14.71880215915660        5.44758964186794        1.83679531574500
C           15.42400269572835        6.16761642891921        2.77700223580605
C           14.98668354363050        6.42959596461341        4.17981634344505
C           16.66376405847636        6.62524571261577        2.27098115588676
C           16.89904496207072        6.25961866285685        0.98597045051401
S           15.60596681062879        5.33471755963624        0.33568723416719
S           12.99875825105641        3.60280638077190        0.75919744884210
S            8.93982918217686        2.32847995647930        1.82434678358605
S            6.03230691508165        0.98933301764695        2.14091732424690
Cl           0.05021391847855       -1.47562138673848        1.53744696501412
H            0.82480445473931        1.77933947690735        2.68227303490048
H            1.48784450720556        0.75543169273246        3.82781245056094
H            0.90441586778719        0.12851355776957        2.39163652154337
H            3.28284312689314        1.90734799244304        2.68341514149036
H            2.59852340328333        1.32859292150408        1.14632020376694
H            2.91547595851238       -1.02123027277311        1.90777663683307
H            3.69562803828605       -0.42903014839468        3.38498397997609
H            4.62395796651215       -1.56002809511038        0.02530252696593
H            7.00922885264187       -0.91180878982317       -0.76091851141587
H            9.24035204745166        0.07639933782544       -0.97382507577828
H           11.52873597125141        0.64032026143808       -1.69410357439879
H           12.61118362549442        1.13627580148351       -0.38332933621837
H           11.94199303134130        2.34707882980917       -1.46848353413063
H           10.40647347567551        4.23036697085035        3.18489753075955
H           12.45194777581325        5.73826375051135        3.61879398125364
H           14.54798086850935        5.53578981110449        4.61864076540789
H           14.24559144810415        7.22816285927627        4.20809094446569
H           15.84009537772538        6.73607512687163        4.77857786541110
H           17.35509757909420        7.20505523875187        2.85578866676651
H           17.75149738509003        6.47194214067039        0.37335933433280

          :  Hamiltonian                  GFN2-xTB          :
         :: total energy             -73.513155245431 Eh    ::
         :: gradient norm              0.000788088842 Eh/a0 ::
         :: HOMO-LUMO gap              1.789010998929 eV    ::
         :: SCC energy               -74.541786421780 Eh    ::
         :: -> dispersion             -0.057423146141 Eh    ::
         :: -> Gsolv                  -0.073955392845 Eh    ::
         :: repulsion energy           1.029394092825 Eh    ::

    * Orbital Energies and Occupations

         #    Occupation            Energy/Eh            Energy/eV
      -------------------------------------------------------------
         1        2.0000           -1.0063730             -27.3848
       ...           ...                  ...                  ...
        56        2.0000           -0.4372054             -11.8970
        57        2.0000           -0.4353838             -11.8474
        58        2.0000           -0.4303387             -11.7101
        59        2.0000           -0.4043050             -11.0017
        60        2.0000           -0.4027479             -10.9593
        61        2.0000           -0.4001465             -10.8885
        62        2.0000           -0.3999362             -10.8828
        63        2.0000           -0.3970181             -10.8034
        64        2.0000           -0.3945282             -10.7357
        65        2.0000           -0.3915590             -10.6549
        66        2.0000           -0.3908111             -10.6345
        67        2.0000           -0.3760719             -10.2334
        68        2.0000           -0.3498650              -9.5203 (HOMO)
        69                         -0.2841201              -7.7313 (LUMO)
        70                         -0.2567800              -6.9873
        71                         -0.2282511              -6.2110
        72                         -0.2223324              -6.0500
        73                         -0.2161353              -5.8813
        74                         -0.2011198              -5.4727
        75                         -0.1895534              -5.1580
        76                         -0.1839668              -5.0060
        77                         -0.1801295              -4.9016
        78                         -0.1619308              -4.4064
        79                         -0.1481357              -4.0310
       ...                                ...                  ...
       149                          0.7024410              19.1144
      -------------------------------------------------------------
                  HL-Gap            0.0657449 Eh            1.7890 eV

     #   Z          covCN         q      C6AA      α(0)
     1   7 N        3.484    -0.169    24.654     7.375
     2   6 C        3.734    -0.025    21.107     6.557
     3   6 C        3.828    -0.084    22.073     6.685
     4   6 C        2.987     0.028    27.377     8.583
     5   6 C        3.111    -0.059    29.299     8.868
     6   6 C        3.109    -0.057    29.267     8.863
     7   6 C        3.020     0.011    27.741     8.640
     8   6 C        3.014     0.018    27.588     8.616
     9   6 C        3.110    -0.065    29.458     8.892
    10   6 C        3.126    -0.001    27.852     8.641
    11   6 C        3.756    -0.118    22.805     6.809
    12   6 C        3.017     0.006    27.863     8.659
    13   6 C        3.028     0.020    27.543     8.609
    14   6 C        3.107    -0.058    29.285     8.867
    15   6 C        3.097    -0.057    29.294     8.870
    16   6 C        3.027     0.017    27.597     8.617
    17   6 C        3.031     0.006    27.852     8.656
    18   6 C        3.134    -0.005    27.921     8.650
    19   6 C        3.755    -0.116    22.783     6.806
    20   6 C        3.120    -0.057    29.230     8.855
    21   6 C        2.930    -0.025    28.631     8.775
    22  16 S        2.371    -0.066   143.781    20.181
    23  16 S        2.399    -0.061   143.581    20.167
    24  16 S        2.380    -0.065   143.760    20.180
    25  16 S        2.388    -0.035   142.515    20.092
    26  17 Cl       0.048    -0.947   124.871    17.007
    27   1 H        0.859     0.308     0.690     1.301
    28   1 H        0.859     0.302     0.708     1.319
    29   1 H        0.904     0.297     0.720     1.327
    30   1 H        0.924     0.114     1.660     2.015
    31   1 H        0.925     0.102     1.771     2.081
    32   1 H        0.924     0.079     1.986     2.204
    33   1 H        0.924     0.088     1.901     2.156
    34   1 H        0.926     0.041     2.431     2.438
    35   1 H        0.926     0.035     2.518     2.481
    36   1 H        0.926     0.040     2.450     2.448
    37   1 H        0.925     0.059     2.208     2.324
    38   1 H        0.925     0.061     2.189     2.314
    39   1 H        0.925     0.062     2.179     2.309
    40   1 H        0.926     0.048     2.344     2.394
    41   1 H        0.926     0.052     2.299     2.371
    42   1 H        0.925     0.054     2.266     2.354
    43   1 H        0.925     0.058     2.221     2.331
    44   1 H        0.925     0.059     2.212     2.326
    45   1 H        0.926     0.049     2.337     2.390
    46   1 H        0.927     0.056     2.240     2.340

Wiberg/Mayer (AO) data.
largest (>0.10) Wiberg bond orders for each atom

     #   Z sym  total        # sym  WBO       # sym  WBO       # sym  WBO
 ---------------------------------------------------------------------------
     1   7 N    3.643 --     2 C    0.974    28 H    0.894    27 H    0.891
                            29 H    0.831
     2   6 C    3.930 --     3 C    0.992     1 N    0.974    31 H    0.969
                            30 H    0.964
     3   6 C    3.988 --     4 C    1.027     2 C    0.992    32 H    0.962
                            33 H    0.956
     4   6 C    3.925 --     5 C    1.572    25 S    1.157     3 C    1.027
     5   6 C    3.985 --     4 C    1.572     6 C    1.302    34 H    0.963
     6   6 C    3.968 --     7 C    1.498     5 C    1.302    35 H    0.964
     7   6 C    3.952 --     6 C    1.498     8 C    1.162    25 S    1.125
     8   6 C    3.931 --     9 C    1.476     7 C    1.162    24 S    1.127
     9   6 C    3.980 --     8 C    1.476    10 C    1.312    36 H    0.962
    10   6 C    3.973 --    12 C    1.439     9 C    1.312    11 C    1.029
    11   6 C    3.993 --    10 C    1.029    37 H    0.981    38 H    0.963
                            39 H    0.963
    12   6 C    3.930 --    10 C    1.439    13 C    1.182    24 S    1.106
    13   6 C    3.938 --    14 C    1.464    12 C    1.182    23 S    1.119
    14   6 C    3.970 --    13 C    1.464    15 C    1.344    40 H    0.959
    15   6 C    3.984 --    16 C    1.474    14 C    1.344    41 H    0.960
    16   6 C    3.928 --    15 C    1.474    17 C    1.157    23 S    1.124
    17   6 C    3.943 --    18 C    1.478    16 C    1.157    22 S    1.117
    18   6 C    3.968 --    17 C    1.478    20 C    1.267    19 C    1.026
    19   6 C    3.994 --    18 C    1.026    44 H    0.981    42 H    0.973
                            43 H    0.964
    20   6 C    3.985 --    21 C    1.612    18 C    1.267    45 H    0.963
    21   6 C    3.923 --    20 C    1.612    22 S    1.186    46 H    0.968
    22  16 S    2.591 --    21 C    1.186    17 C    1.117
    23  16 S    2.583 --    16 C    1.124    13 C    1.119
    24  16 S    2.556 --     8 C    1.127    12 C    1.106
    25  16 S    2.578 --     4 C    1.157     7 C    1.125
    26  17 Cl   0.103
    27   1 H    0.904 --     1 N    0.891
    28   1 H    0.909 --     1 N    0.894
    29   1 H    0.912 --     1 N    0.831
    30   1 H    0.987 --     2 C    0.964
    31   1 H    0.990 --     2 C    0.969
    32   1 H    0.993 --     3 C    0.962
    33   1 H    0.990 --     3 C    0.956
    34   1 H    0.998 --     5 C    0.963
    35   1 H    0.999 --     6 C    0.964
    36   1 H    0.998 --     9 C    0.962
    37   1 H    0.996 --    11 C    0.981
    38   1 H    0.995 --    11 C    0.963
    39   1 H    0.995 --    11 C    0.963
    40   1 H    0.997 --    14 C    0.959
    41   1 H    0.997 --    15 C    0.960
    42   1 H    0.996 --    19 C    0.973
    43   1 H    0.995 --    19 C    0.964
    44   1 H    0.996 --    19 C    0.981
    45   1 H    0.997 --    20 C    0.963
    46   1 H    0.996 --    21 C    0.968
 ---------------------------------------------------------------------------

molecular dipole:
                 x           y           z       tot (Debye)
 q only:        2.247       4.242       2.619
   full:        2.075       3.567       2.187      11.871

           -------------------------------------------------
          | TOTAL ENERGY              -73.513155245431 Eh   |
          | GRADIENT NORM               0.000788088842 Eh/α |
          | HOMO-LUMO GAP               1.789010998929 eV   |
           -------------------------------------------------

 * finished run on 2023/01/24 at 14:57:15.358
