   * xtb version 6.5.1 (fef0646) compiled by 'conda@b96dff2e9fd6' on 2023-01-04
          program call               : xtb init.xyz --opt -c 1 -u 0 -P 16 --alpb water

   ID    Z sym.   atoms
    1    7 N      1
    2    6 C      2-8
    3    1 H      9-18

      * Solvation model:               ALPB
        Solvent                        water
        Solvent mass                       1.8000E+01 g/mol
          :  Hamiltonian                  GFN2-xTB          :
 * total energy  :   -22.6612127 Eh     change       -0.2496279E-09 Eh
 * total energy  :   -22.6628126 Eh     change       -0.1599943E-02 Eh
 * total energy  :   -22.6629302 Eh     change       -0.1175722E-03 Eh
 * total energy  :   -22.6629453 Eh     change       -0.1512775E-04 Eh
 * total energy  :   -22.6629506 Eh     change       -0.5261878E-05 Eh
 * total energy  :   -22.6629524 Eh     change       -0.1782031E-05 Eh
   *** GEOMETRY OPTIMIZATION CONVERGED AFTER 6 ITERATIONS ***

 final structure:
================
18
 xtb: 6.5.1 (fef0646)
N            3.72644385880229       -0.08310237900115       -0.85852537622862
C            2.49557580814717        0.08160453660178       -0.03575093363461
C            2.81626518454491        0.79717781917865        1.25066977119186
C            2.80555637153694        2.18607823892441        1.29964980209614
C            3.11743785963539        2.84568947705646        2.47549956902262
C            3.44471919251909        2.12191490534472        3.61062322113582
C            3.45863081949284        0.73734174262930        3.56790670231623
C            3.14786595976319        0.07716971981326        2.39177785241943
H            3.50975108894999       -0.56575638380961       -1.73846351312600
H            4.42388915208890       -0.63089876567216       -0.34128128766421
H            4.13313915421925        0.83494066349345       -1.07328360952672
H            2.08215273594356       -0.90270512005649        0.18200739034667
H            1.76481219806185        0.65605949429024       -0.60441317119179
H            2.53773590505036        2.76020752393728        0.42561438988821
H            3.10203707738762        3.92462481205542        2.51164129786819
H            3.68355527522278        2.63662082160128        4.52945889990491
H            3.70894995803152        0.17453885353090        4.45464047057114
H            3.15057240060235       -1.00212595991772        2.37336852461073

          :  Hamiltonian                  GFN2-xTB          :
         :: total energy             -22.662952353001 Eh    ::
         :: gradient norm              0.000409401824 Eh/a0 ::
         :: HOMO-LUMO gap              4.755326186962 eV    ::
         :: SCC energy               -23.067799943804 Eh    ::
         :: -> dispersion             -0.012113010533 Eh    ::
         :: -> Gsolv                  -0.117397598336 Eh    ::
         :: repulsion energy           0.404805861124 Eh    ::

    * Orbital Energies and Occupations

         #    Occupation            Energy/Eh            Energy/eV
      -------------------------------------------------------------
         1        2.0000           -0.6945755             -18.9004
       ...           ...                  ...                  ...
         9        2.0000           -0.5748621             -15.6428
        10        2.0000           -0.5532045             -15.0535
        11        2.0000           -0.5268553             -14.3365
        12        2.0000           -0.5079068             -13.8208
        13        2.0000           -0.5002322             -13.6120
        14        2.0000           -0.4828105             -13.1379
        15        2.0000           -0.4817202             -13.1083
        16        2.0000           -0.4785914             -13.0231
        17        2.0000           -0.4705839             -12.8052
        18        2.0000           -0.4316477             -11.7457
        19        2.0000           -0.4253987             -11.5757
        20        2.0000           -0.4102999             -11.1648
        21        2.0000           -0.4100930             -11.1592 (HOMO)
        22                         -0.2353380              -6.4039 (LUMO)
        23                         -0.2287050              -6.2234
        24                         -0.1072322              -2.9179
        25                         -0.0327048              -0.8899
        26                          0.0585221               1.5925
        27                          0.0789011               2.1470
        28                          0.1162768               3.1641
        29                          0.1213984               3.3034
        30                          0.1392888               3.7902
        31                          0.1630401               4.4365
        32                          0.1669353               4.5425
       ...                                ...                  ...
        42                          0.6566912              17.8695
      -------------------------------------------------------------
                  HL-Gap            0.1747550 Eh            4.7553 eV

     #   Z          covCN         q      C6AA      α(0)
     1   7 N        3.485    -0.159    24.421     7.340
     2   6 C        3.737    -0.047    21.494     6.616
     3   6 C        2.970     0.006    27.893     8.663
     4   6 C        2.923    -0.045    29.117     8.849
     5   6 C        2.919    -0.032    28.807     8.801
     6   6 C        2.920    -0.031    28.770     8.796
     7   6 C        2.919    -0.032    28.805     8.801
     8   6 C        2.923    -0.044    29.104     8.847
     9   1 H        0.859     0.321     0.655     1.268
    10   1 H        0.859     0.307     0.692     1.303
    11   1 H        0.859     0.306     0.695     1.306
    12   1 H        0.925     0.118     1.632     1.998
    13   1 H        0.925     0.118     1.628     1.995
    14   1 H        0.926     0.061     2.185     2.312
    15   1 H        0.926     0.034     2.533     2.489
    16   1 H        0.926     0.026     2.649     2.545
    17   1 H        0.926     0.033     2.538     2.491
    18   1 H        0.926     0.060     2.195     2.317

Wiberg/Mayer (AO) data.
largest (>0.10) Wiberg bond orders for each atom

     #   Z sym  total        # sym  WBO       # sym  WBO       # sym  WBO
 ---------------------------------------------------------------------------
     1   7 N    3.654 --     2 C    0.957    11 H    0.892    10 H    0.892
                             9 H    0.884
     2   6 C    3.926 --     3 C    1.008    12 H    0.963    13 H    0.962
                             1 N    0.957
     3   6 C    3.988 --     8 C    1.415     4 C    1.413     2 C    1.008
                             6 C    0.109
     4   6 C    3.989 --     5 C    1.444     3 C    1.413    14 H    0.966
                             7 C    0.112
     5   6 C    3.992 --     4 C    1.444     6 C    1.439    15 H    0.971
                             8 C    0.112
     6   6 C    3.992 --     7 C    1.440     5 C    1.439    16 H    0.972
                             3 C    0.109
     7   6 C    3.992 --     8 C    1.443     6 C    1.440    17 H    0.971
                             4 C    0.112
     8   6 C    3.989 --     7 C    1.443     3 C    1.415    18 H    0.967
                             5 C    0.112
     9   1 H    0.896 --     1 N    0.884
    10   1 H    0.906 --     1 N    0.892
    11   1 H    0.906 --     1 N    0.892
    12   1 H    0.986 --     2 C    0.963
    13   1 H    0.986 --     2 C    0.962
    14   1 H    0.996 --     4 C    0.966
    15   1 H    0.999 --     5 C    0.971
    16   1 H    0.999 --     6 C    0.972
    17   1 H    0.999 --     7 C    0.971
    18   1 H    0.996 --     8 C    0.967
 ---------------------------------------------------------------------------

molecular dipole:
                 x           y           z       tot (Debye)
 q only:        6.797      -0.195      -1.604
   full:        6.911      -0.103      -1.468      17.961

           -------------------------------------------------
          | TOTAL ENERGY              -22.662952353001 Eh   |
          | GRADIENT NORM               0.000409401824 Eh/α |
          | HOMO-LUMO GAP               4.755326186962 eV   |
           -------------------------------------------------

 * finished run on 2023/01/24 at 15:16:59.845
