   * xtb version 6.5.1 (fef0646) compiled by 'conda@b96dff2e9fd6' on 2023-01-04
          program call               : xtb init.xyz --opt -c 1 -u 0 -P 16

   ID    Z sym.   atoms
    1    7 N      1
    2    6 C      2-5
    3    1 H      6-15

          :  Hamiltonian                  GFN2-xTB          :
 * total energy  :   -16.1288238 Eh     change       -0.1577405E-11 Eh
 * total energy  :   -16.1330814 Eh     change       -0.4257649E-02 Eh
 * total energy  :   -16.1334990 Eh     change       -0.4175957E-03 Eh
 * total energy  :   -16.1338308 Eh     change       -0.3317270E-03 Eh
 * total energy  :   -16.1339318 Eh     change       -0.1010172E-03 Eh
 * total energy  :   -16.1340248 Eh     change       -0.9301004E-04 Eh
 * total energy  :   -16.1341170 Eh     change       -0.9225528E-04 Eh
 * total energy  :   -16.1341849 Eh     change       -0.6788651E-04 Eh
 * total energy  :   -16.1342239 Eh     change       -0.3895064E-04 Eh
 * total energy  :   -16.1342500 Eh     change       -0.2610993E-04 Eh
 * total energy  :   -16.1342586 Eh     change       -0.8594335E-05 Eh
 * total energy  :   -16.1342639 Eh     change       -0.5328125E-05 Eh
 * total energy  :   -16.1342684 Eh     change       -0.4531782E-05 Eh
   *** GEOMETRY OPTIMIZATION CONVERGED AFTER 13 ITERATIONS ***

 final structure:
================
15
 xtb: 6.5.1 (fef0646)
N            0.97448903044702        0.04964038471250        0.21997944567068
C            2.46730140772341        0.05936920818847        0.05857906616844
C            3.20395766783212       -1.03987832415564        0.82770913853536
C            4.12983176600839        0.03334241908266        1.42923380973451
C            3.19704519530785        1.12705240530106        0.87726581702254
H            0.56937377024691       -0.79364940810782       -0.20553627045531
H            0.55433681006895        0.87951748296491       -0.21745291527784
H            0.74523067446697        0.05511020925696        1.22321962730354
H            2.69018249577659        0.08409644508098       -1.00809875197100
H            3.68418306869094       -1.80156023105531        0.22065615771358
H            2.58395857442799       -1.52984515571495        1.57560073860437
H            5.11407266440727        0.04687697019106        0.97324551812756
H            4.24337352681710        0.00899059281049        2.50791614391170
H            3.67216612013107        1.91926930927026        0.30628561417292
H            2.57391722764745        1.57805769217437        1.64695686073893

          :  Hamiltonian                  GFN2-xTB          :
         :: total energy             -16.134268442878 Eh    ::
         :: gradient norm              0.000841278055 Eh/a0 ::
         :: HOMO-LUMO gap              8.696458340506 eV    ::
         :: SCC energy               -16.363745348105 Eh    ::
         :: -> dispersion             -0.006651318749 Eh    ::
         :: repulsion energy           0.229465821691 Eh    ::

    * Orbital Energies and Occupations

         #    Occupation            Energy/Eh            Energy/eV
      -------------------------------------------------------------
         1        2.0000           -0.8940997             -24.3297
       ...           ...                  ...                  ...
         3        2.0000           -0.8093164             -22.0226
         4        2.0000           -0.8038498             -21.8739
         5        2.0000           -0.7939611             -21.6048
         6        2.0000           -0.7560747             -20.5738
         7        2.0000           -0.7328011             -19.9405
         8        2.0000           -0.7102853             -19.3278
         9        2.0000           -0.6891315             -18.7522
        10        2.0000           -0.6548129             -17.8184
        11        2.0000           -0.6537472             -17.7894
        12        2.0000           -0.6359884             -17.3061
        13        2.0000           -0.6012152             -16.3599
        14        2.0000           -0.5942432             -16.1702
        15        2.0000           -0.5808951             -15.8070 (HOMO)
        16                         -0.2613062              -7.1105 (LUMO)
        17                         -0.1717885              -4.6746
        18                         -0.1459976              -3.9728
        19                         -0.1403176              -3.8182
        20                         -0.1009753              -2.7477
        21                         -0.0945949              -2.5741
        22                         -0.0490763              -1.3354
        23                         -0.0389972              -1.0612
        24                         -0.0101500              -0.2762
        25                          0.0343855               0.9357
        26                          0.0414278               1.1273
       ...                                ...                  ...
        30                          0.2190529               5.9607
      -------------------------------------------------------------
                  HL-Gap            0.3195890 Eh            8.6965 eV

     #   Z          covCN         q      C6AA      α(0)
     1   7 N        3.482    -0.136    23.933     7.266
     2   6 C        3.979     0.016    20.235     6.391
     3   6 C        3.982    -0.081    21.961     6.658
     4   6 C        3.999    -0.068    21.715     6.620
     5   6 C        3.982    -0.081    21.958     6.657
     6   1 H        0.859     0.269     0.813     1.413
     7   1 H        0.859     0.269     0.814     1.414
     8   1 H        0.859     0.273     0.799     1.400
     9   1 H        0.925     0.096     1.822     2.111
    10   1 H        0.925     0.080     1.983     2.202
    11   1 H        0.925     0.065     2.137     2.286
    12   1 H        0.925     0.078     1.998     2.211
    13   1 H        0.925     0.074     2.045     2.236
    14   1 H        0.925     0.080     1.982     2.201
    15   1 H        0.925     0.065     2.139     2.287

Wiberg/Mayer (AO) data.
largest (>0.10) Wiberg bond orders for each atom

     #   Z sym  total        # sym  WBO       # sym  WBO       # sym  WBO
 ---------------------------------------------------------------------------
     1   7 N    3.670 --     7 H    0.912     6 H    0.911     8 H    0.906
                             2 C    0.901
     2   6 C    3.887 --     5 C    0.998     3 C    0.998     9 H    0.963
                             1 N    0.901
     3   6 C    3.977 --     4 C    1.000     2 C    0.998    10 H    0.975
                            11 H    0.973
     4   6 C    3.981 --     5 C    1.000     3 C    1.000    13 H    0.979
                            12 H    0.978
     5   6 C    3.977 --     4 C    1.000     2 C    0.998    14 H    0.975
                            15 H    0.973
     6   1 H    0.928 --     1 N    0.911
     7   1 H    0.928 --     1 N    0.912
     8   1 H    0.925 --     1 N    0.906
     9   1 H    0.991 --     2 C    0.963
    10   1 H    0.994 --     3 C    0.975
    11   1 H    0.996 --     3 C    0.973
    12   1 H    0.994 --     4 C    0.978
    13   1 H    0.995 --     4 C    0.979
    14   1 H    0.994 --     5 C    0.975
    15   1 H    0.996 --     5 C    0.973
 ---------------------------------------------------------------------------

molecular dipole:
                 x           y           z       tot (Debye)
 q only:        2.854       0.091       0.707
   full:        2.511       0.091       0.638       6.588

           -------------------------------------------------
          | TOTAL ENERGY              -16.134268442878 Eh   |
          | GRADIENT NORM               0.000841278055 Eh/α |
          | HOMO-LUMO GAP               8.696458340506 eV   |
           -------------------------------------------------

 * finished run on 2023/01/23 at 13:42:08.302
