   * xtb version 6.5.1 (fef0646) compiled by 'conda@b96dff2e9fd6' on 2023-01-04
          program call               : xtb init.xyz --opt -c 0 -u 0 -P 16 --input xtb.inp

   ID    Z sym.   atoms
    1    7 N      1
    2    6 C      2-7, 9, 10
    3   17 Cl     8, 11
    4    1 H      12-22

          :  Hamiltonian                  GFN2-xTB          :
 * total energy  :   -34.7279200 Eh     change       -0.2892186E-08 Eh
 * total energy  :   -34.7347256 Eh     change       -0.6805672E-02 Eh
 * total energy  :   -34.7406213 Eh     change       -0.5895648E-02 Eh
 * total energy  :   -34.7450169 Eh     change       -0.4395641E-02 Eh
 * total energy  :   -34.7486434 Eh     change       -0.3626446E-02 Eh
 * total energy  :   -34.7507708 Eh     change       -0.2127467E-02 Eh
 * total energy  :   -34.7520087 Eh     change       -0.1237865E-02 Eh
 * total energy  :   -34.7528341 Eh     change       -0.8253520E-03 Eh
 * total energy  :   -34.7527236 Eh     change        0.1104674E-03 Eh
 * total energy  :   -34.7531947 Eh     change       -0.4711187E-03 Eh
 * total energy  :   -34.7547431 Eh     change       -0.1592095E-04 Eh
 * total energy  :   -34.7547634 Eh     change       -0.2029469E-04 Eh
 * total energy  :   -34.7547793 Eh     change       -0.1591510E-04 Eh
 * total energy  :   -34.7548032 Eh     change       -0.2384848E-04 Eh
 * total energy  :   -34.7548259 Eh     change       -0.2272527E-04 Eh
 * total energy  :   -34.7548386 Eh     change       -0.1269980E-04 Eh
 * total energy  :   -34.7548485 Eh     change       -0.9950152E-05 Eh
 * total energy  :   -34.7548520 Eh     change       -0.3438354E-05 Eh
 * total energy  :   -34.7548551 Eh     change       -0.3127919E-05 Eh
   *** GEOMETRY OPTIMIZATION CONVERGED AFTER 35 ITERATIONS ***

 final structure:
================
22
 xtb: 6.5.1 (fef0646)
N            1.14999948884582        0.39403422142147        0.18834434030461
C            2.60555631185044        0.50346282562864        0.12410391464300
C            3.06779139093921        0.46650357708520       -1.33635936840921
C            4.56646796585884        0.40734547960783       -1.40762163018288
C            5.22309790555568       -0.81217483079126       -1.29287472923431
C            6.60349528995053       -0.88256944071229       -1.31975827691341
C            7.33914250065836        0.28317304690801       -1.46116249153547
Cl           9.06722633266214        0.20642444112950       -1.49642522851397
C            6.70628234083842        1.50944405653226       -1.57676208955803
C            5.32408722432908        1.56266669195139       -1.54720018213173
Cl           0.37412742181197       -2.13927036872288       -1.08022484126198
H            0.82236355298681        0.38776280003440        1.14795712210988
H            0.72788330997475       -0.95525475647162       -0.48477006412737
H            0.70686235354467        1.16236926149494       -0.30449218852376
H            3.02440013003162       -0.35250656796206        0.65724930697268
H            2.97867032261182        1.41943525486061        0.60316061876203
H            2.70112084503684        1.35487676709954       -1.85368111476872
H            2.63388598940825       -0.41431969495947       -1.80925655233246
H            4.64564514524735       -1.71847569128579       -1.18774356742435
H            7.10751336820261       -1.83226553394634       -1.23378283981968
H            7.28906976935003        2.41008177624694       -1.68952737489299
H            4.83089104030694        2.51926668484536       -1.64104276316008

          :  Hamiltonian                  GFN2-xTB          :
         :: total energy             -34.754855107422 Eh    ::
         :: gradient norm              0.000626658044 Eh/a0 ::
         :: HOMO-LUMO gap              4.239558500709 eV    ::
         :: SCC energy               -35.185785776477 Eh    ::
         :: -> dispersion             -0.019161813759 Eh    ::
         :: repulsion energy           0.430947653603 Eh    ::

    * Orbital Energies and Occupations

         #    Occupation            Energy/Eh            Energy/eV
      -------------------------------------------------------------
         1        2.0000           -1.0558438             -28.7310
       ...           ...                  ...                  ...
        19        2.0000           -0.4932706             -13.4226
        20        2.0000           -0.4887543             -13.2997
        21        2.0000           -0.4839623             -13.1693
        22        2.0000           -0.4636684             -12.6171
        23        2.0000           -0.4474006             -12.1744
        24        2.0000           -0.4456077             -12.1256
        25        2.0000           -0.4415607             -12.0155
        26        2.0000           -0.4227077             -11.5025
        27        2.0000           -0.4177997             -11.3689
        28        2.0000           -0.4061052             -11.0507
        29        2.0000           -0.3998096             -10.8794
        30        2.0000           -0.3994303             -10.8691
        31        2.0000           -0.3967472             -10.7960 (HOMO)
        32                         -0.2409463              -6.5565 (LUMO)
        33                         -0.2404023              -6.5417
        34                         -0.1372308              -3.7342
        35                         -0.1152875              -3.1371
        36                         -0.0616834              -1.6785
        37                          0.0102585               0.2791
        38                          0.0156280               0.4253
        39                          0.0206849               0.5629
        40                          0.0207354               0.5642
        41                          0.0338139               0.9201
        42                          0.0612355               1.6663
       ...                                ...                  ...
        65                          0.6362950              17.3145
      -------------------------------------------------------------
                  HL-Gap            0.1558009 Eh            4.2396 eV

     #   Z          covCN         q      C6AA      α(0)
     1   7 N        2.689    -0.305    27.845     7.837
     2   6 C        3.733     0.010    20.488     6.460
     3   6 C        3.809    -0.081    22.045     6.683
     4   6 C        2.970     0.012    27.742     8.640
     5   6 C        2.928    -0.037    28.912     8.818
     6   6 C        2.952    -0.039    28.972     8.828
     7   6 C        2.890     0.097    25.848     8.335
     8  17 Cl       0.965    -0.183   104.893    15.669
     9   6 C        2.953    -0.040    29.003     8.833
    10   6 C        2.927    -0.037    28.923     8.820
    11  17 Cl       0.837    -0.483   115.075    16.411
    12   1 H        0.860     0.167     1.289     1.778
    13   1 H        0.896     0.333     0.620     1.232
    14   1 H        0.860     0.168     1.283     1.774
    15   1 H        0.924     0.056     2.251     2.346
    16   1 H        0.923     0.027     2.628     2.535
    17   1 H        0.924     0.047     2.356     2.400
    18   1 H        0.925     0.076     2.024     2.225
    19   1 H        0.926     0.054     2.265     2.354
    20   1 H        0.926     0.058     2.224     2.332
    21   1 H        0.926     0.056     2.248     2.345
    22   1 H        0.926     0.043     2.403     2.424

Wiberg/Mayer (AO) data.
largest (>0.10) Wiberg bond orders for each atom

     #   Z sym  total        # sym  WBO       # sym  WBO       # sym  WBO
 ---------------------------------------------------------------------------
     1   7 N    3.235 --     2 C    1.007    12 H    0.958    14 H    0.958
                            13 H    0.202
     2   6 C    3.974 --     1 N    1.007     3 C    0.989    15 H    0.974
                            16 H    0.973
     3   6 C    3.992 --     4 C    1.011     2 C    0.989    17 H    0.973
                            18 H    0.965
     4   6 C    3.989 --    10 C    1.413     5 C    1.406     3 C    1.011
     5   6 C    3.990 --     6 C    1.449     4 C    1.406    19 H    0.967
                             9 C    0.109
     6   6 C    3.989 --     5 C    1.449     7 C    1.401    20 H    0.967
                            10 C    0.108
     7   6 C    3.915 --     9 C    1.406     6 C    1.401     8 Cl   0.970
     8  17 Cl   1.103 --     7 C    0.970
     9   6 C    3.989 --    10 C    1.442     7 C    1.406    21 H    0.968
                             5 C    0.109
    10   6 C    3.990 --     9 C    1.442     4 C    1.413    22 H    0.968
                             6 C    0.108
    11  17 Cl   0.770 --    13 H    0.682
    12   1 H    0.971 --     1 N    0.958
    13   1 H    0.889 --    11 Cl   0.682     1 N    0.202
    14   1 H    0.972 --     1 N    0.958
    15   1 H    0.997 --     2 C    0.974
    16   1 H    0.999 --     2 C    0.973
    17   1 H    0.997 --     3 C    0.973
    18   1 H    0.994 --     3 C    0.965
    19   1 H    0.997 --     5 C    0.967
    20   1 H    0.996 --     6 C    0.967
    21   1 H    0.997 --     9 C    0.968
    22   1 H    0.998 --    10 C    0.968
 ---------------------------------------------------------------------------

molecular dipole:
                 x           y           z       tot (Debye)
 q only:       -0.388       1.624       0.786
   full:       -0.359       1.546       0.801       4.519

           -------------------------------------------------
          | TOTAL ENERGY              -34.754855107422 Eh   |
          | GRADIENT NORM               0.000626658044 Eh/α |
          | HOMO-LUMO GAP               4.239558500709 eV   |
           -------------------------------------------------

 * finished run on 2023/01/23 at 19:36:49.896
