   * xtb version 6.5.1 (fef0646) compiled by 'conda@b96dff2e9fd6' on 2023-01-04
          program call               : xtb init.xyz --opt -c 1 -u 0 -P 16 --input xtb.inp

   ID    Z sym.   atoms
    1    7 N      1
    2    6 C      2-7, 9, 10
    3    9 F      8
    4    1 H      11-21

          :  Hamiltonian                  GFN2-xTB          :
 * total energy  :   -29.9443723 Eh     change       -0.1371951E-08 Eh
 * total energy  :   -29.9461837 Eh     change       -0.1811362E-02 Eh
 * total energy  :   -29.9464938 Eh     change       -0.3101213E-03 Eh
 * total energy  :   -29.9466239 Eh     change       -0.1301511E-03 Eh
 * total energy  :   -29.9467550 Eh     change       -0.1311202E-03 Eh
 * total energy  :   -29.9468760 Eh     change       -0.1209051E-03 Eh
 * total energy  :   -29.9470170 Eh     change       -0.1410578E-03 Eh
 * total energy  :   -29.9471715 Eh     change       -0.1544621E-03 Eh
 * total energy  :   -29.9472980 Eh     change       -0.1264764E-03 Eh
 * total energy  :   -29.9473887 Eh     change       -0.9076762E-04 Eh
 * total energy  :   -29.9483684 Eh     change       -0.8611209E-04 Eh
 * total energy  :   -29.9484049 Eh     change       -0.3648459E-04 Eh
 * total energy  :   -29.9484207 Eh     change       -0.1576323E-04 Eh
 * total energy  :   -29.9484337 Eh     change       -0.1305952E-04 Eh
 * total energy  :   -29.9484545 Eh     change       -0.2073228E-04 Eh
 * total energy  :   -29.9484768 Eh     change       -0.2236224E-04 Eh
 * total energy  :   -29.9484858 Eh     change       -0.8981483E-05 Eh
 * total energy  :   -29.9484937 Eh     change       -0.7830831E-05 Eh
 * total energy  :   -29.9484962 Eh     change       -0.2525915E-05 Eh
   *** GEOMETRY OPTIMIZATION CONVERGED AFTER 26 ITERATIONS ***

 final structure:
================
21
 xtb: 6.5.1 (fef0646)
N            3.07088103551505        3.32923337571603        1.68040046008470
C            2.55093279188007        1.99023176766881        2.08917441137523
C            3.03887973098551        0.95887226033059        1.07038492112320
C            4.54522821494983        0.99891533626222        1.01073576081374
C            5.30634303137790        0.23186493531993        1.88679409324033
C            6.68530728307882        0.31897889604797        1.88693774199566
C            7.30284438145343        1.19231120970090        1.00415469873431
F            8.63288951584195        1.29137315553987        1.00733780795845
C            6.57348205683342        1.96424243649023        0.11610098612768
C            5.19094289568948        1.86703337276449        0.12892635180080
H            3.07660829368586        4.00259720535095        2.45312921207497
H            2.51581402043970        3.71555342237080        0.90798474642647
H            4.04512482627595        3.15878994586934        1.32975546580656
H            1.46314646112873        2.01751331221780        2.14522676810996
H            2.95271483715580        1.75241487836530        3.07494132616472
H            2.60928484827318        1.16690799265490        0.08950818601349
H            2.69841750110850       -0.02764166739566        1.38090167920571
H            4.81662182325659       -0.45132505270525        2.56346051436840
H            7.28599105315405       -0.28087143342479        2.55091803107283
H            7.08489602564154        2.61402896354826       -0.57535892165662
H            4.62676937227473        2.41139568730756       -0.61785424084070

          :  Hamiltonian                  GFN2-xTB          :
         :: total energy             -29.948496183247 Eh    ::
         :: gradient norm              0.000253880020 Eh/a0 ::
         :: HOMO-LUMO gap              4.403073527675 eV    ::
         :: SCC energy               -30.389000220199 Eh    ::
         :: -> dispersion             -0.015499963746 Eh    ::
         :: repulsion energy           0.440408941478 Eh    ::

    * Orbital Energies and Occupations

         #    Occupation            Energy/Eh            Energy/eV
      -------------------------------------------------------------
         1        2.0000           -0.9282923             -25.2601
       ...           ...                  ...                  ...
        15        2.0000           -0.6649044             -18.0930
        16        2.0000           -0.6610328             -17.9876
        17        2.0000           -0.6496116             -17.6768
        18        2.0000           -0.6444369             -17.5360
        19        2.0000           -0.6294200             -17.1274
        20        2.0000           -0.6248663             -17.0035
        21        2.0000           -0.6200527             -16.8725
        22        2.0000           -0.6056903             -16.4817
        23        2.0000           -0.5938762             -16.1602
        24        2.0000           -0.5872953             -15.9811
        25        2.0000           -0.5584024             -15.1949
        26        2.0000           -0.5533967             -15.0587
        27        2.0000           -0.5367681             -14.6062 (HOMO)
        28                         -0.3749581             -10.2031 (LUMO)
        29                         -0.3691742             -10.0457
        30                         -0.2553399              -6.9482
        31                         -0.2424364              -6.5970
        32                         -0.1532481              -4.1701
        33                         -0.0990762              -2.6960
        34                         -0.0912416              -2.4828
        35                         -0.0670729              -1.8251
        36                         -0.0495465              -1.3482
        37                         -0.0463752              -1.2619
        38                         -0.0021902              -0.0596
       ...                                ...                  ...
        51                          0.5128808              13.9562
      -------------------------------------------------------------
                  HL-Gap            0.1618100 Eh            4.4031 eV

     #   Z          covCN         q      C6AA      α(0)
     1   7 N        3.483    -0.140    24.027     7.280
     2   6 C        3.734    -0.031    21.219     6.574
     3   6 C        3.809    -0.093    22.261     6.716
     4   6 C        2.970    -0.009    28.240     8.717
     5   6 C        2.925    -0.036    28.905     8.817
     6   6 C        2.916    -0.040    28.999     8.830
     7   6 C        2.785     0.182    24.088     8.039
     8   9 F        0.788    -0.192    11.153     3.945
     9   6 C        2.914    -0.048    29.190     8.860
    10   6 C        2.925    -0.063    29.556     8.915
    11   1 H        0.859     0.264     0.830     1.427
    12   1 H        0.859     0.266     0.823     1.421
    13   1 H        0.857     0.278     0.782     1.386
    14   1 H        0.925     0.107     1.722     2.052
    15   1 H        0.924     0.106     1.728     2.056
    16   1 H        0.924     0.075     2.032     2.229
    17   1 H        0.925     0.099     1.796     2.096
    18   1 H        0.926     0.064     2.156     2.296
    19   1 H        0.926     0.086     1.918     2.166
    20   1 H        0.926     0.079     1.990     2.206
    21   1 H        0.925     0.045     2.378     2.412

Wiberg/Mayer (AO) data.
largest (>0.10) Wiberg bond orders for each atom

     #   Z sym  total        # sym  WBO       # sym  WBO       # sym  WBO
 ---------------------------------------------------------------------------
     1   7 N    3.667 --     2 C    0.933    11 H    0.916    12 H    0.914
                            13 H    0.852
     2   6 C    3.897 --     3 C    0.995    15 H    0.968    14 H    0.967
                             1 N    0.933
     3   6 C    3.979 --     4 C    1.006     2 C    0.995    16 H    0.968
                            17 H    0.959
     4   6 C    3.987 --     5 C    1.404    10 C    1.392     3 C    1.006
     5   6 C    3.989 --     6 C    1.456     4 C    1.404    18 H    0.966
                             9 C    0.108
     6   6 C    3.987 --     5 C    1.456     7 C    1.380    19 H    0.963
                            10 C    0.105
     7   6 C    3.895 --     9 C    1.393     6 C    1.380     8 F    0.991
     8   9 F    1.136 --     7 C    0.991
     9   6 C    3.987 --    10 C    1.432     7 C    1.393    20 H    0.964
                             5 C    0.108
    10   6 C    3.990 --     9 C    1.432     4 C    1.392    21 H    0.961
                             6 C    0.105
    11   1 H    0.930 --     1 N    0.916
    12   1 H    0.929 --     1 N    0.914
    13   1 H    0.923 --     1 N    0.852
    14   1 H    0.987 --     2 C    0.967
    15   1 H    0.989 --     2 C    0.968
    16   1 H    0.994 --     3 C    0.968
    17   1 H    0.990 --     3 C    0.959
    18   1 H    0.996 --     5 C    0.966
    19   1 H    0.992 --     6 C    0.963
    20   1 H    0.993 --     9 C    0.964
    21   1 H    0.998 --    10 C    0.961
 ---------------------------------------------------------------------------

molecular dipole:
                 x           y           z       tot (Debye)
 q only:        5.637       5.265       3.197
   full:        5.642       5.455       3.146      21.490

           -------------------------------------------------
          | TOTAL ENERGY              -29.948496183247 Eh   |
          | GRADIENT NORM               0.000253880020 Eh/α |
          | HOMO-LUMO GAP               4.403073527675 eV   |
           -------------------------------------------------

 * finished run on 2023/01/23 at 19:39:31.781
