   * xtb version 6.5.1 (fef0646) compiled by 'conda@b96dff2e9fd6' on 2023-01-04
          program call               : xtb init.xyz --opt -c 1 -u 0 -P 16 --alpb water

   ID    Z sym.   atoms
    1    7 N      1, 24, 26
    2    6 C      2-21, 23, 27
    3   16 S      22, 25, 28, 29
    4    1 H      30-49

      * Solvation model:               ALPB
        Solvent                        water
        Solvent mass                       1.8000E+01 g/mol
          :  Hamiltonian                  GFN2-xTB          :
 * total energy  :   -78.7239504 Eh     change       -0.2030717E-08 Eh
 * total energy  :   -78.7393766 Eh     change       -0.1542618E-01 Eh
 * total energy  :   -78.7446408 Eh     change       -0.5264263E-02 Eh
 * total energy  :   -78.7461102 Eh     change       -0.1469376E-02 Eh
 * total energy  :   -78.7471417 Eh     change       -0.1031503E-02 Eh
 * total energy  :   -78.7477211 Eh     change       -0.5794291E-03 Eh
 * total energy  :   -78.7482895 Eh     change       -0.5683612E-03 Eh
 * total energy  :   -78.7487646 Eh     change       -0.4750743E-03 Eh
 * total energy  :   -78.7490830 Eh     change       -0.3184733E-03 Eh
 * total energy  :   -78.7493318 Eh     change       -0.2487294E-03 Eh
 * total energy  :   -78.7514651 Eh     change       -0.1814462E-04 Eh
 * total energy  :   -78.7514765 Eh     change       -0.1144722E-04 Eh
 * total energy  :   -78.7514923 Eh     change       -0.1576569E-04 Eh
 * total energy  :   -78.7515018 Eh     change       -0.9469264E-05 Eh
 * total energy  :   -78.7515138 Eh     change       -0.1208352E-04 Eh
 * total energy  :   -78.7515243 Eh     change       -0.1046935E-04 Eh
 * total energy  :   -78.7515329 Eh     change       -0.8636982E-05 Eh
 * total energy  :   -78.7515406 Eh     change       -0.7616712E-05 Eh
 * total energy  :   -78.7515438 Eh     change       -0.3198799E-05 Eh
   *** GEOMETRY OPTIMIZATION CONVERGED AFTER 44 ITERATIONS ***

 final structure:
================
49
 xtb: 6.5.1 (fef0646)
N            3.47906882241961       -1.11689926045710       -0.80256295882423
C            2.74781839351175       -0.29147744250110        0.18274789697312
C            3.52398513809593       -0.20959670547410        1.49994847702107
C            4.75750057132382        0.62093409528637        1.38264709315005
C            5.00449897040956        1.85181243914033        1.91110409660871
C            6.27370966671166        2.36251788573086        1.57994392150545
C            7.01557653686535        1.52363468470795        0.78926966251386
C            8.31718640548229        1.71823653674549        0.24721450743508
C            9.06534125830556        0.84726226902624       -0.50543040940351
C           10.31256828151739        1.36038574252054       -0.90016143504775
C           11.28324586385595        0.53574774928622       -1.67936550966982
C           10.51820690841267        2.64975447149616       -0.44373268749889
C           11.62081514969085        3.55076462350082       -0.64823167585810
C           12.49332564458665        3.48887502086141       -1.72265180824836
C           13.54244577297218        4.39290333222872       -1.90549571712848
C           13.79853045854238        5.44336952764978       -1.04084098796889
C           14.86799253382622        6.39343924242504       -1.22562856388330
C           15.46321122285396        6.83948973907096       -2.38564457672238
C           15.07154590371268        6.46968918859276       -3.77868406105999
C           16.49672361994827        7.77026798773635       -2.12552635741466
C           16.67948902900200        8.02130043603676       -0.80457756678328
S           15.57637683724309        7.14894826079309        0.17903142056060
C           12.93508937847572        5.53898976745819        0.08044111562463
N           12.97695367344889        6.45382657709679        1.05041952149117
S           11.78912682020436        6.17172578932455        2.09462775261186
N           11.15422359372120        4.87976539995298        1.37052834944214
C           11.85380780299923        4.61174207381758        0.26695320554387
S            9.17330797028216        3.21154907224135        0.51317496354210
S            6.13649021966514        0.07010919277276        0.46406272064438
H            2.98609347810491       -1.14063370129301       -1.70112922921330
H            3.58817055813717       -2.07564724994064       -0.45372797809086
H            4.42382687857470       -0.72958198734295       -0.94475399839711
H            1.77161678522998       -0.73590859482231        0.37137578769612
H            2.60763096935880        0.71109418162937       -0.21983079323429
H            3.78938620204220       -1.21296806648571        1.83422643862008
H            2.88456671912534        0.23997803172333        2.25842092553808
H            4.30330751585700        2.38758155110654        2.52496119870077
H            6.65102819402942        3.31649516903974        1.90435889244234
H            8.73369405348691       -0.14247816947718       -0.76758733543835
H           11.07591184611537       -0.51896992526290       -1.51769234101541
H           12.30577451499900        0.74427964248597       -1.37321683672181
H           11.19115052523824        0.73726017221141       -2.74631378690680
H           12.35323728426833        2.73026644913889       -2.47270153629141
H           14.18968741676806        4.24597294487941       -2.75298513263187
H           14.00356373413743        6.27681735883502       -3.84516199913295
H           15.60965518073263        5.58035819972461       -4.10607841175140
H           15.32803444621134        7.28205521688497       -4.45409067180231
H           17.07703107567593        8.23204790123893       -2.90398068453827
H           17.38977017381031        8.67585317864931       -0.34132289699200

          :  Hamiltonian                  GFN2-xTB          :
         :: total energy             -78.751543761853 Eh    ::
         :: gradient norm              0.000262806409 Eh/a0 ::
         :: HOMO-LUMO gap              1.221699934586 eV    ::
         :: SCC energy               -79.909425624855 Eh    ::
         :: -> dispersion             -0.065235641612 Eh    ::
         :: -> Gsolv                  -0.129541770626 Eh    ::
         :: repulsion energy           1.158402500468 Eh    ::

    * Orbital Energies and Occupations

         #    Occupation            Energy/Eh            Energy/eV
      -------------------------------------------------------------
         1        2.0000           -0.7709876             -20.9796
       ...           ...                  ...                  ...
        61        2.0000           -0.4479984             -12.1907
        62        2.0000           -0.4456446             -12.1266
        63        2.0000           -0.4408822             -11.9970
        64        2.0000           -0.4301027             -11.7037
        65        2.0000           -0.4232237             -11.5165
        66        2.0000           -0.4208666             -11.4524
        67        2.0000           -0.4203441             -11.4381
        68        2.0000           -0.4087200             -11.1218
        69        2.0000           -0.4024052             -10.9500
        70        2.0000           -0.3954056             -10.7595
        71        2.0000           -0.3921897             -10.6720
        72        2.0000           -0.3833415             -10.4313
        73        2.0000           -0.3618367              -9.8461 (HOMO)
        74                         -0.3169400              -8.6244 (LUMO)
        75                         -0.2791944              -7.5973
        76                         -0.2567558              -6.9867
        77                         -0.2320021              -6.3131
        78                         -0.2292788              -6.2390
        79                         -0.2257362              -6.1426
        80                         -0.2187964              -5.9538
        81                         -0.2030818              -5.5261
        82                         -0.2029240              -5.5218
        83                         -0.1948154              -5.3012
        84                         -0.1773413              -4.8257
       ...                                ...                  ...
       156                          0.7127519              19.3950
      -------------------------------------------------------------
                  HL-Gap            0.0448966 Eh            1.2217 eV

     #   Z          covCN         q      C6AA      α(0)
     1   7 N        3.485    -0.164    24.535     7.357
     2   6 C        3.733    -0.042    21.409     6.604
     3   6 C        3.822    -0.096    22.316     6.723
     4   6 C        2.984     0.026    27.415     8.589
     5   6 C        3.110    -0.059    29.309     8.869
     6   6 C        3.122    -0.052    29.096     8.834
     7   6 C        3.020     0.009    27.794     8.648
     8   6 C        3.023     0.021    27.520     8.605
     9   6 C        3.099    -0.068    29.562     8.910
    10   6 C        3.123     0.001    27.815     8.637
    11   6 C        3.755    -0.120    22.845     6.815
    12   6 C        2.995     0.008    27.828     8.653
    13   6 C        3.003    -0.011    28.279     8.723
    14   6 C        2.923    -0.049    29.218     8.864
    15   6 C        2.923    -0.048    29.180     8.858
    16   6 C        2.996    -0.009    28.238     8.717
    17   6 C        2.997     0.007    27.849     8.657
    18   6 C        3.135    -0.001    27.829     8.635
    19   6 C        3.755    -0.118    22.819     6.811
    20   6 C        3.117    -0.059    29.286     8.864
    21   6 C        2.932    -0.025    28.627     8.775
    22  16 S        2.329    -0.055   143.348    20.151
    23   6 C        3.344     0.068    23.972     7.732
    24   7 N        1.861    -0.302    28.671     7.937
    25  16 S        2.655     0.349   127.625    19.014
    26   7 N        1.878    -0.298    28.565     7.923
    27   6 C        3.343     0.070    23.967     7.734
    28  16 S        2.363    -0.082   144.466    20.229
    29  16 S        2.377    -0.024   142.051    20.060
    30   1 H        0.859     0.321     0.654     1.267
    31   1 H        0.859     0.315     0.670     1.282
    32   1 H        0.859     0.304     0.702     1.312
    33   1 H        0.925     0.126     1.565     1.957
    34   1 H        0.925     0.116     1.646     2.006
    35   1 H        0.924     0.107     1.726     2.055
    36   1 H        0.925     0.095     1.832     2.117
    37   1 H        0.926     0.050     2.319     2.381
    38   1 H        0.926     0.024     2.679     2.560
    39   1 H        0.926     0.068     2.108     2.270
    40   1 H        0.925     0.067     2.115     2.274
    41   1 H        0.925     0.048     2.348     2.396
    42   1 H        0.925     0.064     2.155     2.296
    43   1 H        0.926     0.067     2.123     2.278
    44   1 H        0.926     0.062     2.171     2.304
    45   1 H        0.925     0.055     2.261     2.351
    46   1 H        0.925     0.063     2.162     2.300
    47   1 H        0.925     0.061     2.191     2.315
    48   1 H        0.926     0.051     2.304     2.374
    49   1 H        0.926     0.059     2.216     2.328

Wiberg/Mayer (AO) data.
largest (>0.10) Wiberg bond orders for each atom

     #   Z sym  total        # sym  WBO       # sym  WBO       # sym  WBO
 ---------------------------------------------------------------------------
     1   7 N    3.649 --     2 C    0.973    31 H    0.885    30 H    0.883
                            32 H    0.873
     2   6 C    3.926 --     3 C    0.993     1 N    0.973    34 H    0.965
                            33 H    0.961
     3   6 C    3.983 --     4 C    1.026     2 C    0.993    36 H    0.959
                            35 H    0.952
     4   6 C    3.921 --     5 C    1.578    29 S    1.144     3 C    1.026
     5   6 C    3.985 --     4 C    1.578     6 C    1.299    37 H    0.962
     6   6 C    3.972 --     7 C    1.512     5 C    1.299    38 H    0.961
     7   6 C    3.954 --     6 C    1.512     8 C    1.163    29 S    1.109
     8   6 C    3.922 --     9 C    1.477     7 C    1.163    28 S    1.126
     9   6 C    3.974 --     8 C    1.477    10 C    1.310    39 H    0.959
    10   6 C    3.950 --    12 C    1.451     9 C    1.310    11 C    1.027
    11   6 C    3.992 --    10 C    1.027    40 H    0.978    41 H    0.975
                            42 H    0.961
    12   6 C    3.929 --    10 C    1.451    13 C    1.140    28 S    1.118
    13   6 C    3.950 --    14 C    1.431    27 C    1.190    12 C    1.140
    14   6 C    3.975 --    13 C    1.431    15 C    1.363    43 H    0.961
    15   6 C    3.987 --    16 C    1.438    14 C    1.363    44 H    0.963
    16   6 C    3.943 --    15 C    1.438    23 C    1.195    17 C    1.123
    17   6 C    3.941 --    18 C    1.488    16 C    1.123    22 S    1.121
    18   6 C    3.951 --    17 C    1.488    20 C    1.269    19 C    1.027
    19   6 C    3.993 --    18 C    1.027    47 H    0.978    45 H    0.976
                            46 H    0.962
    20   6 C    3.982 --    21 C    1.607    18 C    1.269    48 H    0.963
    21   6 C    3.925 --    20 C    1.607    22 S    1.202    49 H    0.968
    22  16 S    2.623 --    21 C    1.202    17 C    1.121
    23   6 C    3.970 --    24 N    1.384    16 C    1.195    27 C    1.171
    24   7 N    3.081 --    25 S    1.420    23 C    1.384    26 N    0.161
    25  16 S    3.166 --    24 N    1.420    26 N    1.409    27 C    0.101
    26   7 N    3.084 --    25 S    1.409    27 C    1.387    24 N    0.161
    27   6 C    3.968 --    26 N    1.387    13 C    1.190    23 C    1.171
                            25 S    0.101
    28  16 S    2.596 --     8 C    1.126    12 C    1.118
    29  16 S    2.575 --     4 C    1.144     7 C    1.109
    30   1 H    0.897 --     1 N    0.883
    31   1 H    0.901 --     1 N    0.885
    32   1 H    0.908 --     1 N    0.873
    33   1 H    0.983 --     2 C    0.961
    34   1 H    0.987 --     2 C    0.965
    35   1 H    0.987 --     3 C    0.952
    36   1 H    0.991 --     3 C    0.959
    37   1 H    0.997 --     5 C    0.962
    38   1 H    0.999 --     6 C    0.961
    39   1 H    0.995 --     9 C    0.959
    40   1 H    0.995 --    11 C    0.978
    41   1 H    0.997 --    11 C    0.975
    42   1 H    0.993 --    11 C    0.961
    43   1 H    0.994 --    14 C    0.961
    44   1 H    0.994 --    15 C    0.963
    45   1 H    0.996 --    19 C    0.976
    46   1 H    0.994 --    19 C    0.962
    47   1 H    0.996 --    19 C    0.978
    48   1 H    0.997 --    20 C    0.963
    49   1 H    0.996 --    21 C    0.968
 ---------------------------------------------------------------------------

molecular dipole:
                 x           y           z       tot (Debye)
 q only:        5.707      -3.243      -2.278
   full:        6.894      -2.440      -2.319      19.501

           -------------------------------------------------
          | TOTAL ENERGY              -78.751543761853 Eh   |
          | GRADIENT NORM               0.000262806409 Eh/α |
          | HOMO-LUMO GAP               1.221699934586 eV   |
           -------------------------------------------------

 * finished run on 2023/01/24 at 14:57:03.426
