   * xtb version 6.5.1 (fef0646) compiled by 'conda@b96dff2e9fd6' on 2023-01-04
          program call               : xtb init.xyz --opt -c 1 -u 0 -P 16 --alpb water

   ID    Z sym.   atoms
    1    7 N      1, 5
    2    6 C      2-4
    3    1 H      6-12

      * Solvation model:               ALPB
        Solvent                        water
        Solvent mass                       1.8000E+01 g/mol
          :  Hamiltonian                  GFN2-xTB          :
 * total energy  :   -15.4345978 Eh     change       -0.2964970E-09 Eh
 * total energy  :   -15.4642772 Eh     change       -0.2967943E-01 Eh
 * total energy  :   -15.4652125 Eh     change       -0.9353692E-03 Eh
 * total energy  :   -15.4647512 Eh     change        0.4613034E-03 Eh
 * total energy  :   -15.4655208 Eh     change       -0.7695443E-03 Eh
 * total energy  :   -15.4655438 Eh     change       -0.2301493E-04 Eh
 * total energy  :   -15.4655638 Eh     change       -0.2003014E-04 Eh
 * total energy  :   -15.4655948 Eh     change       -0.3095779E-04 Eh
 * total energy  :   -15.4656066 Eh     change       -0.1183724E-04 Eh
 * total energy  :   -15.4656121 Eh     change       -0.5448517E-05 Eh
 * total energy  :   -15.4656125 Eh     change       -0.4552894E-06 Eh
   *** GEOMETRY OPTIMIZATION CONVERGED AFTER 11 ITERATIONS ***

 final structure:
================
12
 xtb: 6.5.1 (fef0646)
N            1.00411752952953        0.09661710629927       -0.01784813210702
C            2.48257106001661       -0.00805586811708       -0.05295662168060
C            2.96939306051837       -0.51983096828167       -1.41126504197409
C            2.58650478353955       -1.88845052591678       -1.64801004109557
N            2.25979297251500       -2.97208689428106       -1.81968357317834
H            0.69149782161456        0.44366397591967        0.89776328694763
H            0.57074496788129       -0.82090922358317       -0.18067899673037
H            0.66748476304098        0.74353256538447       -0.74241839412566
H            2.81414260450928       -0.68457821532746        0.73561251112607
H            2.91420513674214        0.97716105439765        0.12375750951752
H            4.05990355133335       -0.47344084944891       -1.44810047708088
H            2.58290174875938        0.09145784295506       -2.23033202961866

          :  Hamiltonian                  GFN2-xTB          :
         :: total energy             -15.465612534477 Eh    ::
         :: gradient norm              0.000112716024 Eh/a0 ::
         :: HOMO-LUMO gap              5.721649983811 eV    ::
         :: SCC energy               -15.729926790950 Eh    ::
         :: -> dispersion             -0.004908139298 Eh    ::
         :: -> Gsolv                  -0.135350267273 Eh    ::
         :: repulsion energy           0.264307921674 Eh    ::

    * Orbital Energies and Occupations

         #    Occupation            Energy/Eh            Energy/eV
      -------------------------------------------------------------
         1        2.0000           -0.7068364             -19.2340
         2        2.0000           -0.6674828             -18.1631
         3        2.0000           -0.6575376             -17.8925
         4        2.0000           -0.6350186             -17.2797
         5        2.0000           -0.6019613             -16.3802
         6        2.0000           -0.5950531             -16.1922
         7        2.0000           -0.5772004             -15.7064
         8        2.0000           -0.5473998             -14.8955
         9        2.0000           -0.5253820             -14.2964
        10        2.0000           -0.5149582             -14.0127
        11        2.0000           -0.4873137             -13.2605
        12        2.0000           -0.4768166             -12.9748
        13        2.0000           -0.4667455             -12.7008
        14        2.0000           -0.4327435             -11.7756 (HOMO)
        15                         -0.2224768              -6.0539 (LUMO)
        16                         -0.2143057              -5.8316
        17                         -0.0584396              -1.5902
        18                          0.0519092               1.4125
        19                          0.0737969               2.0081
        20                          0.0950730               2.5871
        21                          0.1148235               3.1245
        22                          0.1416577               3.8547
        23                          0.1696569               4.6166
        24                          0.1940548               5.2805
        25                          0.2318798               6.3098
       ...                                ...                  ...
        27                          1.1237282              30.5782
      -------------------------------------------------------------
                  HL-Gap            0.2102668 Eh            5.7216 eV

     #   Z          covCN         q      C6AA      α(0)
     1   7 N        3.484    -0.155    24.352     7.329
     2   6 C        3.735    -0.032    21.230     6.576
     3   6 C        3.804    -0.087    22.159     6.702
     4   6 C        1.896     0.124    28.061     8.555
     5   7 N        0.911    -0.292    27.537     7.590
     6   1 H        0.859     0.323     0.648     1.261
     7   1 H        0.859     0.300     0.714     1.323
     8   1 H        0.859     0.315     0.671     1.283
     9   1 H        0.924     0.120     1.617     1.989
    10   1 H        0.925     0.132     1.517     1.926
    11   1 H        0.924     0.126     1.566     1.957
    12   1 H        0.924     0.127     1.559     1.953

Wiberg/Mayer (AO) data.
largest (>0.10) Wiberg bond orders for each atom

     #   Z sym  total        # sym  WBO       # sym  WBO       # sym  WBO
 ---------------------------------------------------------------------------
     1   7 N    3.654 --     2 C    0.972     7 H    0.894     8 H    0.886
                             6 H    0.882
     2   6 C    3.926 --     3 C    0.987     1 N    0.972     9 H    0.964
                            10 H    0.960
     3   6 C    3.984 --     4 C    1.061     2 C    0.987    12 H    0.929
                            11 H    0.924
     4   6 C    3.939 --     5 N    2.835     3 C    1.061
     5   7 N    3.001 --     4 C    2.835
     6   1 H    0.895 --     1 N    0.882
     7   1 H    0.910 --     1 N    0.894
     8   1 H    0.901 --     1 N    0.886
     9   1 H    0.986 --     2 C    0.964
    10   1 H    0.982 --     2 C    0.960
    11   1 H    0.984 --     3 C    0.924
    12   1 H    0.984 --     3 C    0.929
 ---------------------------------------------------------------------------

molecular dipole:
                 x           y           z       tot (Debye)
 q only:        2.518       1.504       0.182
   full:        2.546       1.811       0.188       7.956

           -------------------------------------------------
          | TOTAL ENERGY              -15.465612534477 Eh   |
          | GRADIENT NORM               0.000112716024 Eh/α |
          | HOMO-LUMO GAP               5.721649983811 eV   |
           -------------------------------------------------

 * finished run on 2023/01/24 at 14:56:01.999
