   * xtb version 6.5.1 (fef0646) compiled by 'conda@b96dff2e9fd6' on 2023-01-04
          program call               : xtb init.xyz --opt -c 0 -u 0 -P 16

   ID    Z sym.   atoms
    1    7 N      1
    2    6 C      2-17
    3   17 Cl     18
    4    1 H      19-36

          :  Hamiltonian                  GFN2-xTB          :
 * total energy  :   -50.8439145 Eh     change       -0.7982663E-09 Eh
 * total energy  :   -50.8519624 Eh     change       -0.8047910E-02 Eh
 * total energy  :   -50.8572576 Eh     change       -0.5295240E-02 Eh
 * total energy  :   -50.8606241 Eh     change       -0.3366505E-02 Eh
 * total energy  :   -50.8637944 Eh     change       -0.3170299E-02 Eh
 * total energy  :   -50.8657728 Eh     change       -0.1978427E-02 Eh
 * total energy  :   -50.8669270 Eh     change       -0.1154208E-02 Eh
 * total energy  :   -50.8675255 Eh     change       -0.5984360E-03 Eh
 * total energy  :   -50.8678981 Eh     change       -0.3726580E-03 Eh
 * total energy  :   -50.8680897 Eh     change       -0.1915799E-03 Eh
 * total energy  :   -50.8711199 Eh     change       -0.6748177E-04 Eh
 * total energy  :   -50.8711768 Eh     change       -0.5691549E-04 Eh
 * total energy  :   -50.8712313 Eh     change       -0.5446763E-04 Eh
 * total energy  :   -50.8712628 Eh     change       -0.3158580E-04 Eh
 * total energy  :   -50.8712924 Eh     change       -0.2956788E-04 Eh
 * total energy  :   -50.8713177 Eh     change       -0.2528475E-04 Eh
 * total energy  :   -50.8713388 Eh     change       -0.2110330E-04 Eh
 * total energy  :   -50.8713482 Eh     change       -0.9363913E-05 Eh
 * total energy  :   -50.8713511 Eh     change       -0.2892496E-05 Eh
   *** GEOMETRY OPTIMIZATION CONVERGED AFTER 37 ITERATIONS ***

 final structure:
================
36
 xtb: 6.5.1 (fef0646)
N            1.01561207110100       -0.21078976163062        1.39709904931584
C            2.47559259597101       -0.20139779283647        1.46975386109242
C            3.02552757655187        1.04957064933563        0.77784494676814
C            4.52551526742404        1.00601976025112        0.73778412183710
C            5.18464693876968        0.35407342903099       -0.29824295975915
C            6.56167374939555        0.28152262742845       -0.33111181120142
C            7.33593116969378        0.85860197884519        0.67911342758861
C            8.78592341858834        0.82463959742208        0.69750983764537
C            9.58407675459342        0.39173662997492       -0.28890634575072
C           11.03506137783659        0.37096889499296       -0.27883088794818
C           11.80252920702462        0.68163677140855        0.84685846911143
C           13.18186388295544        0.64890997902671        0.79384221062872
C           13.83205082914281        0.30604921898897       -0.38085576189515
C           13.08758651865082       -0.00903251687888       -1.50563881482278
C           11.70826469605228        0.02082326663157       -1.45353276065281
C            6.66465999828952        1.50218542987878        1.72300022043218
C            5.28717003519962        1.57577319398637        1.75038806762579
Cl           0.20933640711654       -0.18912566122855       -1.42410600373919
H            0.62993560412220       -1.04087775248292        1.83320811126721
H            0.58677355367863       -0.19887351949638       -0.10325892322936
H            0.62569514857885        0.60922824234738        1.85067724771519
H            2.83825484667031       -1.09159268209641        0.95033744473874
H            2.84265080921998       -0.23784209674390        2.50570564368262
H            2.69002857977030        1.93698183345484        1.31899635119730
H            2.62145070383184        1.08734948826300       -0.23395458285933
H            4.60483545037064       -0.09546349490162       -1.09203084443431
H            7.04006370559802       -0.23465242843870       -1.14943820914235
H            9.22747916699983        1.21511706485531        1.60519775835354
H            9.14139382975807        0.03248351064049       -1.20887939071890
H           11.31796402116216        0.94457922982667        1.77464187402877
H           13.75735093698466        0.89158624530181        1.67572974096514
H           14.91108378302020        0.28261729334090       -0.41805589658831
H           13.58574008089678       -0.27957137763606       -2.42552598389263
H           11.13443197705661       -0.22598442656941       -2.33605449749242
H            7.23843409437915        1.95638831766638        2.51921538029379
H            4.79493121354413        2.08704085804507        2.56641990984326

          :  Hamiltonian                  GFN2-xTB          :
         :: total energy             -50.871351055870 Eh    ::
         :: gradient norm              0.000884760699 Eh/a0 ::
         :: HOMO-LUMO gap              2.766856410625 eV    ::
         :: SCC energy               -51.712823296590 Eh    ::
         :: -> dispersion             -0.033761597989 Eh    ::
         :: repulsion energy           0.841860305832 Eh    ::

    * Orbital Energies and Occupations

         #    Occupation            Energy/Eh            Energy/eV
      -------------------------------------------------------------
         1        2.0000           -1.0183724             -27.7113
       ...           ...                  ...                  ...
        35        2.0000           -0.4429562             -12.0535
        36        2.0000           -0.4385465             -11.9335
        37        2.0000           -0.4329332             -11.7807
        38        2.0000           -0.4225445             -11.4980
        39        2.0000           -0.4207787             -11.4500
        40        2.0000           -0.4146130             -11.2822
        41        2.0000           -0.4096438             -11.1470
        42        2.0000           -0.4064516             -11.0601
        43        2.0000           -0.4039243             -10.9913
        44        2.0000           -0.4005253             -10.8988
        45        2.0000           -0.3953516             -10.7581
        46        2.0000           -0.3952628             -10.7556
        47        2.0000           -0.3696583             -10.0589 (HOMO)
        48                         -0.2679782              -7.2921 (LUMO)
        49                         -0.2231577              -6.0724
        50                         -0.2211481              -6.0177
        51                         -0.2109969              -5.7415
        52                         -0.1620160              -4.4087
        53                         -0.0885526              -2.4096
        54                         -0.0691583              -1.8819
        55                         -0.0576709              -1.5693
        56                          0.0156985               0.4272
        57                          0.0656911               1.7875
        58                          0.0662299               1.8022
       ...                                ...                  ...
        95                          0.7036537              19.1474
      -------------------------------------------------------------
                  HL-Gap            0.1016801 Eh            2.7669 eV

     #   Z          covCN         q      C6AA      α(0)
     1   7 N        2.694    -0.305    27.837     7.836
     2   6 C        3.733     0.012    20.459     6.456
     3   6 C        3.809    -0.078    21.990     6.675
     4   6 C        2.972     0.010    27.790     8.647
     5   6 C        2.922    -0.039    28.978     8.828
     6   6 C        2.922    -0.034    28.852     8.809
     7   6 C        2.970     0.012    27.753     8.641
     8   6 C        2.901    -0.039    28.977     8.826
     9   6 C        2.901    -0.039    28.976     8.826
    10   6 C        2.970     0.014    27.687     8.631
    11   6 C        2.924    -0.034    28.836     8.806
    12   6 C        2.918    -0.030    28.739     8.791
    13   6 C        2.920    -0.031    28.762     8.795
    14   6 C        2.917    -0.030    28.738     8.791
    15   6 C        2.929    -0.034    28.849     8.808
    16   6 C        2.928    -0.036    28.898     8.816
    17   6 C        2.921    -0.040    28.994     8.830
    18  17 Cl       0.837    -0.486   115.176    16.418
    19   1 H        0.860     0.166     1.297     1.784
    20   1 H        0.900     0.333     0.621     1.233
    21   1 H        0.860     0.168     1.287     1.777
    22   1 H        0.924     0.054     2.276     2.359
    23   1 H        0.923     0.025     2.655     2.548
    24   1 H        0.924     0.042     2.418     2.432
    25   1 H        0.925     0.069     2.094     2.263
    26   1 H        0.926     0.038     2.472     2.459
    27   1 H        0.926     0.035     2.513     2.479
    28   1 H        0.925     0.035     2.521     2.483
    29   1 H        0.925     0.036     2.507     2.476
    30   1 H        0.926     0.031     2.568     2.506
    31   1 H        0.926     0.029     2.603     2.523
    32   1 H        0.926     0.029     2.598     2.521
    33   1 H        0.926     0.029     2.597     2.520
    34   1 H        0.925     0.030     2.590     2.517
    35   1 H        0.925     0.030     2.580     2.512
    36   1 H        0.925     0.027     2.624     2.533

Wiberg/Mayer (AO) data.
largest (>0.10) Wiberg bond orders for each atom

     #   Z sym  total        # sym  WBO       # sym  WBO       # sym  WBO
 ---------------------------------------------------------------------------
     1   7 N    3.239 --     2 C    1.005    19 H    0.958    21 H    0.958
                            20 H    0.206
     2   6 C    3.971 --     1 N    1.005     3 C    0.989    22 H    0.974
                            23 H    0.973
     3   6 C    3.992 --     4 C    1.010     2 C    0.989    24 H    0.973
                            25 H    0.967
     4   6 C    3.977 --    17 C    1.404     5 C    1.396     3 C    1.010
     5   6 C    3.991 --     6 C    1.472     4 C    1.396    26 H    0.968
                            16 C    0.101
     6   6 C    3.983 --     5 C    1.472     7 C    1.359    27 H    0.965
                            17 C    0.101
     7   6 C    3.989 --    16 C    1.363     6 C    1.359     8 C    1.115
     8   6 C    3.991 --     9 C    1.757     7 C    1.115    28 H    0.959
     9   6 C    3.988 --     8 C    1.757    10 C    1.114    29 H    0.959
    10   6 C    3.989 --    15 C    1.365    11 C    1.364     9 C    1.114
    11   6 C    3.983 --    12 C    1.464    10 C    1.364    30 H    0.966
                            14 C    0.104
    12   6 C    3.993 --    11 C    1.464    13 C    1.426    31 H    0.971
                            15 C    0.103
    13   6 C    3.980 --    14 C    1.430    12 C    1.426    32 H    0.972
    14   6 C    3.992 --    15 C    1.461    13 C    1.430    33 H    0.971
                            11 C    0.104
    15   6 C    3.982 --    14 C    1.461    10 C    1.365    34 H    0.969
                            12 C    0.103
    16   6 C    3.982 --    17 C    1.464     7 C    1.363    35 H    0.969
                             5 C    0.101
    17   6 C    3.991 --    16 C    1.464     4 C    1.404    36 H    0.969
                             6 C    0.101
    18  17 Cl   0.767 --    20 H    0.678
    19   1 H    0.972 --     1 N    0.958
    20   1 H    0.889 --    18 Cl   0.678     1 N    0.206
    21   1 H    0.972 --     1 N    0.958
    22   1 H    0.997 --     2 C    0.974
    23   1 H    0.999 --     2 C    0.973
    24   1 H    0.998 --     3 C    0.973
    25   1 H    0.994 --     3 C    0.967
    26   1 H    0.998 --     5 C    0.968
    27   1 H    0.998 --     6 C    0.965
    28   1 H    0.998 --     8 C    0.959
    29   1 H    0.998 --     9 C    0.959
    30   1 H    0.999 --    11 C    0.966
    31   1 H    0.999 --    12 C    0.971
    32   1 H    0.999 --    13 C    0.972
    33   1 H    0.999 --    14 C    0.971
    34   1 H    0.999 --    15 C    0.969
    35   1 H    0.999 --    16 C    0.969
    36   1 H    0.999 --    17 C    0.969
 ---------------------------------------------------------------------------

molecular dipole:
                 x           y           z       tot (Debye)
 q only:        0.630       0.017       1.751
   full:        0.440      -0.016       1.714       4.498

           -------------------------------------------------
          | TOTAL ENERGY              -50.871351055870 Eh   |
          | GRADIENT NORM               0.000884760699 Eh/α |
          | HOMO-LUMO GAP               2.766856410625 eV   |
           -------------------------------------------------

 * finished run on 2023/01/23 at 13:53:52.328
