   * xtb version 6.5.1 (fef0646) compiled by 'conda@b96dff2e9fd6' on 2023-01-04
          program call               : xtb init.xyz --opt -c 1 -u 0 -P 16 --alpb water

   ID    Z sym.   atoms
    1    7 N      1
    2    6 C      2-5
    3    1 H      6-13

      * Solvation model:               ALPB
        Solvent                        water
        Solvent mass                       1.8000E+01 g/mol
          :  Hamiltonian                  GFN2-xTB          :
 * total energy  :   -15.1377153 Eh     change       -0.1847306E-08 Eh
 * total energy  :   -15.1604140 Eh     change       -0.2269870E-01 Eh
 * total energy  :   -15.1615948 Eh     change       -0.1180766E-02 Eh
 * total energy  :   -15.1615167 Eh     change        0.7806731E-04 Eh
 * total energy  :   -15.1616888 Eh     change       -0.1720694E-03 Eh
 * total energy  :   -15.1617036 Eh     change       -0.1479807E-04 Eh
 * total energy  :   -15.1617144 Eh     change       -0.1086435E-04 Eh
 * total energy  :   -15.1617223 Eh     change       -0.7850683E-05 Eh
 * total energy  :   -15.1617243 Eh     change       -0.2010476E-05 Eh
   *** GEOMETRY OPTIMIZATION CONVERGED AFTER 9 ITERATIONS ***

 final structure:
================
13
 xtb: 6.5.1 (fef0646)
N            0.97114213817482        0.04570254356664        0.08676028948198
C            2.45368514367861        0.07440938917374        0.07917696539599
C            2.94905242722884        1.01632583567326       -1.01843785139572
C            2.49630844984829        2.37633250766734       -0.78748740543624
C            2.08251402466913        3.47895681021106       -0.57172837199772
H            0.61541997359110       -0.53996881977650        0.85044776100694
H            0.61424960523086       -0.31821902800518       -0.80520975297202
H            0.61846717382151        1.00478727521879        0.20450014876281
H            2.83779973836098       -0.92950692387325       -0.09764034791157
H            2.80791534554376        0.42491224809520        1.04873869373694
H            2.60105374164124        0.68701476884872       -1.99983832768712
H            4.03970943977887        1.01254193686004       -1.03488634350720
H            1.74420279843210        4.45661145634020       -0.39764545747700

          :  Hamiltonian                  GFN2-xTB          :
         :: total energy             -15.161724290827 Eh    ::
         :: gradient norm              0.000713426542 Eh/a0 ::
         :: HOMO-LUMO gap              6.821474281996 eV    ::
         :: SCC energy               -15.459191624571 Eh    ::
         :: -> dispersion             -0.005567622695 Eh    ::
         :: -> Gsolv                  -0.117399627989 Eh    ::
         :: repulsion energy           0.297457332941 Eh    ::

    * Orbital Energies and Occupations

         #    Occupation            Energy/Eh            Energy/eV
      -------------------------------------------------------------
         1        2.0000           -0.6950563             -18.9134
         2        2.0000           -0.6496259             -17.6772
         3        2.0000           -0.6247175             -16.9994
         4        2.0000           -0.6054518             -16.4752
         5        2.0000           -0.5909275             -16.0800
         6        2.0000           -0.5833588             -15.8740
         7        2.0000           -0.5564931             -15.1429
         8        2.0000           -0.5256041             -14.3024
         9        2.0000           -0.4984008             -13.5622
        10        2.0000           -0.4941123             -13.4455
        11        2.0000           -0.4782817             -13.0147
        12        2.0000           -0.4583874             -12.4734
        13        2.0000           -0.4160290             -11.3207
        14        2.0000           -0.4097505             -11.1499 (HOMO)
        15                         -0.1590660              -4.3284 (LUMO)
        16                         -0.1509247              -4.1069
        17                         -0.0469534              -1.2777
        18                          0.0504056               1.3716
        19                          0.0665019               1.8096
        20                          0.0999280               2.7192
        21                          0.1164880               3.1698
        22                          0.1417385               3.8569
        23                          0.1854387               5.0460
        24                          0.2053443               5.5877
        25                          0.2375892               6.4651
       ...                                ...                  ...
        28                          1.4257902              38.7977
      -------------------------------------------------------------
                  HL-Gap            0.2506846 Eh            6.8215 eV

     #   Z          covCN         q      C6AA      α(0)
     1   7 N        3.485    -0.156    24.359     7.330
     2   6 C        3.736    -0.034    21.259     6.580
     3   6 C        3.805    -0.071    21.851     6.655
     4   6 C        1.967    -0.034    31.969     9.131
     5   6 C        1.909    -0.128    34.700     9.513
     6   1 H        0.859     0.316     0.667     1.280
     7   1 H        0.859     0.310     0.684     1.295
     8   1 H        0.859     0.298     0.719     1.329
     9   1 H        0.925     0.115     1.654     2.011
    10   1 H        0.925     0.111     1.685     2.030
    11   1 H        0.924     0.095     1.827     2.114
    12   1 H        0.924     0.094     1.839     2.121
    13   1 H        0.928     0.082     1.961     2.190

Wiberg/Mayer (AO) data.
largest (>0.10) Wiberg bond orders for each atom

     #   Z sym  total        # sym  WBO       # sym  WBO       # sym  WBO
 ---------------------------------------------------------------------------
     1   7 N    3.656 --     2 C    0.967     8 H    0.892     7 H    0.889
                             6 H    0.887
     2   6 C    3.927 --     3 C    0.994     1 N    0.967    10 H    0.966
                             9 H    0.965
     3   6 C    3.989 --     4 C    1.052     2 C    0.994    11 H    0.947
                            12 H    0.944
     4   6 C    3.978 --     5 C    2.893     3 C    1.052
     5   6 C    3.973 --     4 C    2.893    13 H    0.970
     6   1 H    0.900 --     1 N    0.887
     7   1 H    0.904 --     1 N    0.889
     8   1 H    0.911 --     1 N    0.892
     9   1 H    0.986 --     2 C    0.965
    10   1 H    0.988 --     2 C    0.966
    11   1 H    0.991 --     3 C    0.947
    12   1 H    0.991 --     3 C    0.944
    13   1 H    0.993 --     5 C    0.970
 ---------------------------------------------------------------------------

molecular dipole:
                 x           y           z       tot (Debye)
 q only:        2.241      -0.212       0.039
   full:        2.127      -0.109       0.038       5.414

           -------------------------------------------------
          | TOTAL ENERGY              -15.161724290827 Eh   |
          | GRADIENT NORM               0.000713426542 Eh/α |
          | HOMO-LUMO GAP               6.821474281996 eV   |
           -------------------------------------------------

 * finished run on 2023/01/24 at 14:56:01.541
