   * xtb version 6.5.1 (fef0646) compiled by 'conda@b96dff2e9fd6' on 2023-01-04
          program call               : xtb init.xyz --opt -c 0 -u 0 -P 16 --alpb water

   ID    Z sym.   atoms
    1    7 N      1
    2    6 C      2-13
    3   17 Cl     14
    4    1 H      15-28

      * Solvation model:               ALPB
        Solvent                        water
        Solvent mass                       1.8000E+01 g/mol
          :  Hamiltonian                  GFN2-xTB          :
 * total energy  :   -40.3295820 Eh     change       -0.7543051E-09 Eh
 * total energy  :   -40.3370560 Eh     change       -0.7474043E-02 Eh
 * total energy  :   -40.3389398 Eh     change       -0.1883812E-02 Eh
 * total energy  :   -40.3395060 Eh     change       -0.5661982E-03 Eh
 * total energy  :   -40.3399983 Eh     change       -0.4923140E-03 Eh
 * total energy  :   -40.3402798 Eh     change       -0.2814515E-03 Eh
 * total energy  :   -40.3406704 Eh     change       -0.3905845E-03 Eh
 * total energy  :   -40.3408486 Eh     change       -0.1782136E-03 Eh
 * total energy  :   -40.3409153 Eh     change       -0.6671645E-04 Eh
 * total energy  :   -40.3409449 Eh     change       -0.2959739E-04 Eh
 * total energy  :   -40.3410504 Eh     change       -0.9208363E-05 Eh
 * total energy  :   -40.3410588 Eh     change       -0.8420556E-05 Eh
 * total energy  :   -40.3410678 Eh     change       -0.8933423E-05 Eh
 * total energy  :   -40.3410791 Eh     change       -0.1133747E-04 Eh
 * total energy  :   -40.3410921 Eh     change       -0.1298188E-04 Eh
 * total energy  :   -40.3411071 Eh     change       -0.1499578E-04 Eh
 * total energy  :   -40.3411127 Eh     change       -0.5656937E-05 Eh
 * total energy  :   -40.3411187 Eh     change       -0.5929657E-05 Eh
 * total energy  :   -40.3411221 Eh     change       -0.3459651E-05 Eh
   *** GEOMETRY OPTIMIZATION CONVERGED AFTER 24 ITERATIONS ***

 final structure:
================
28
 xtb: 6.5.1 (fef0646)
N            1.03997542652256        0.01597082476787       -0.37958200742075
C            2.49979121997842       -0.00593097096969       -0.10592395256018
C            3.26630705853072        0.11274107012006       -1.41945418977978
C            2.86407113560146        1.10660530428984        0.84723475585925
C            3.58205433407244        0.80559420485677        2.01942207286024
C            3.93661617899031        1.78933442111338        2.89767206626699
C            2.52518897200229        2.40898576391044        0.58555128832751
C            2.86670534552644        3.44676559823611        1.47459800039923
C            3.58705455958803        3.13381800648272        2.65640949525055
C            3.92231430647880        4.17343804601801        3.54830554168147
C            3.55799502898488        5.46415822694585        3.28410655979325
C            2.84546417321829        5.77446053546639        2.11456728449566
C            2.50923145077073        4.78945145383161        1.22902025815682
Cl          -0.51304700181479       -0.14868232549143        2.22324526452578
H            0.76642232701948       -0.77135422848622       -0.97203541508591
H            0.76822218800623        0.89192460409695       -0.83218264736819
H            0.49499154353963       -0.05054589537175        0.52080160335702
H            2.72618338649946       -0.96086935029400        0.37404286106896
H            3.04473672000545        1.05567910094719       -1.91021214677333
H            3.01880992456495       -0.70805340631287       -2.08581643694904
H            4.33344185385175        0.08095366533427       -1.22278083447050
H            3.84577740927919       -0.22071988102130        2.22665797859220
H            4.48317473854868        1.54947555981043        3.79853758477685
H            1.98599639998284        2.68266011760759       -0.30907961471946
H            4.46979310192787        3.92964023111518        4.44780909773968
H            3.81431154307608        6.25475737593339        3.97397585266004
H            2.56481746711962        6.79973394616749        1.92379972682098
H            1.95937920812774        5.02744800089490        0.33020995249513

          :  Hamiltonian                  GFN2-xTB          :
         :: total energy             -40.341122112926 Eh    ::
         :: gradient norm              0.000472217536 Eh/a0 ::
         :: HOMO-LUMO gap              3.218383469026 eV    ::
         :: SCC energy               -40.984278508351 Eh    ::
         :: -> dispersion             -0.026808750725 Eh    ::
         :: -> Gsolv                  -0.070963031758 Eh    ::
         :: repulsion energy           0.642939707218 Eh    ::

    * Orbital Energies and Occupations

         #    Occupation            Energy/Eh            Energy/eV
      -------------------------------------------------------------
         1        2.0000           -1.0054296             -27.3591
       ...           ...                  ...                  ...
        25        2.0000           -0.4655687             -12.6688
        26        2.0000           -0.4580022             -12.4629
        27        2.0000           -0.4465858             -12.1522
        28        2.0000           -0.4437788             -12.0758
        29        2.0000           -0.4372585             -11.8984
        30        2.0000           -0.4225593             -11.4984
        31        2.0000           -0.4159668             -11.3190
        32        2.0000           -0.4116216             -11.2008
        33        2.0000           -0.4027009             -10.9580
        34        2.0000           -0.3991905             -10.8625
        35        2.0000           -0.3990228             -10.8580
        36        2.0000           -0.3954343             -10.7603
        37        2.0000           -0.3756598             -10.2222 (HOMO)
        38                         -0.2573864              -7.0038 (LUMO)
        39                         -0.2263965              -6.1606
        40                         -0.1862771              -5.0689
        41                         -0.1453197              -3.9543
        42                         -0.0562043              -1.5294
        43                         -0.0205566              -0.5594
        44                          0.0698486               1.9007
        45                          0.0769006               2.0926
        46                          0.0915466               2.4911
        47                          0.1141609               3.1065
        48                          0.1177811               3.2050
       ...                                ...                  ...
        75                          0.6991028              19.0236
      -------------------------------------------------------------
                  HL-Gap            0.1182734 Eh            3.2184 eV

     #   Z          covCN         q      C6AA      α(0)
     1   7 N        3.485    -0.176    24.797     7.396
     2   6 C        3.787     0.034    20.011     6.371
     3   6 C        3.756    -0.145    23.358     6.891
     4   6 C        2.969     0.011    27.761     8.643
     5   6 C        2.920    -0.038    28.941     8.822
     6   6 C        2.917    -0.038    28.946     8.822
     7   6 C        2.923    -0.046    29.142     8.853
     8   6 C        2.987     0.012    27.745     8.640
     9   6 C        2.988     0.009    27.800     8.649
    10   6 C        2.918    -0.040    28.985     8.829
    11   6 C        2.916    -0.036    28.890     8.814
    12   6 C        2.916    -0.036    28.899     8.815
    13   6 C        2.918    -0.041    29.028     8.835
    14  17 Cl       0.066    -0.944   124.745    16.998
    15   1 H        0.859     0.302     0.706     1.316
    16   1 H        0.859     0.289     0.746     1.353
    17   1 H        0.922     0.294     0.726     1.332
    18   1 H        0.924     0.093     1.854     2.129
    19   1 H        0.925     0.075     2.029     2.227
    20   1 H        0.925     0.079     1.993     2.208
    21   1 H        0.925     0.072     2.065     2.247
    22   1 H        0.926     0.041     2.431     2.438
    23   1 H        0.926     0.031     2.571     2.507
    24   1 H        0.926     0.059     2.215     2.327
    25   1 H        0.926     0.029     2.595     2.519
    26   1 H        0.926     0.031     2.578     2.511
    27   1 H        0.926     0.034     2.530     2.487
    28   1 H        0.926     0.044     2.402     2.423

Wiberg/Mayer (AO) data.
largest (>0.10) Wiberg bond orders for each atom

     #   Z sym  total        # sym  WBO       # sym  WBO       # sym  WBO
 ---------------------------------------------------------------------------
     1   7 N    3.641 --     2 C    0.947    16 H    0.895    15 H    0.893
                            17 H    0.827
     2   6 C    3.937 --     3 C    1.000     4 C    0.994    18 H    0.958
                             1 N    0.947
     3   6 C    3.980 --     2 C    1.000    19 H    0.980    21 H    0.979
                            20 H    0.979
     4   6 C    3.988 --     7 C    1.527     5 C    1.299     2 C    0.994
     5   6 C    3.991 --     6 C    1.560     4 C    1.299    22 H    0.967
     6   6 C    3.992 --     5 C    1.560     9 C    1.279    23 H    0.968
                             7 C    0.116
     7   6 C    3.990 --     4 C    1.527     8 C    1.284    24 H    0.960
                             6 C    0.116
     8   6 C    3.990 --     7 C    1.284    13 C    1.278     9 C    1.250
     9   6 C    3.990 --    10 C    1.280     6 C    1.279     8 C    1.250
    10   6 C    3.992 --    11 C    1.557     9 C    1.280    25 H    0.969
                            13 C    0.118
    11   6 C    3.990 --    10 C    1.557    12 C    1.320    26 H    0.971
    12   6 C    3.992 --    13 C    1.558    11 C    1.320    27 H    0.971
    13   6 C    3.990 --    12 C    1.558     8 C    1.278    28 H    0.967
                            10 C    0.118
    14  17 Cl   0.109
    15   1 H    0.908 --     1 N    0.893
    16   1 H    0.916 --     1 N    0.895
    17   1 H    0.913 --     1 N    0.827
    18   1 H    0.991 --     2 C    0.958
    19   1 H    0.994 --     3 C    0.980
    20   1 H    0.993 --     3 C    0.979
    21   1 H    0.995 --     3 C    0.979
    22   1 H    0.998 --     5 C    0.967
    23   1 H    0.998 --     6 C    0.968
    24   1 H    0.996 --     7 C    0.960
    25   1 H    0.999 --    10 C    0.969
    26   1 H    0.999 --    11 C    0.971
    27   1 H    0.998 --    12 C    0.971
    28   1 H    0.998 --    13 C    0.967
 ---------------------------------------------------------------------------

molecular dipole:
                 x           y           z       tot (Debye)
 q only:        2.998       0.245      -4.902
   full:        2.535       0.277      -4.137      12.353

           -------------------------------------------------
          | TOTAL ENERGY              -40.341122112926 Eh   |
          | GRADIENT NORM               0.000472217536 Eh/α |
          | HOMO-LUMO GAP               3.218383469026 eV   |
           -------------------------------------------------

 * finished run on 2023/01/24 at 16:53:09.589
