   * xtb version 6.5.1 (fef0646) compiled by 'conda@b96dff2e9fd6' on 2023-01-04
          program call               : xtb init.xyz --opt -c 0 -u 0 -P 16 --alpb water

   ID    Z sym.   atoms
    1    7 N      1
    2    6 C      2-9
    3   17 Cl     10
    4    1 H      11-28

      * Solvation model:               ALPB
        Solvent                        water
        Solvent mass                       1.8000E+01 g/mol
          :  Hamiltonian                  GFN2-xTB          :
 * total energy  :   -33.8357004 Eh     change       -0.1103757E-09 Eh
 * total energy  :   -33.8388633 Eh     change       -0.3162960E-02 Eh
 * total energy  :   -33.8399430 Eh     change       -0.1079685E-02 Eh
 * total energy  :   -33.8405307 Eh     change       -0.5876497E-03 Eh
 * total energy  :   -33.8415113 Eh     change       -0.9806612E-03 Eh
 * total energy  :   -33.8425765 Eh     change       -0.1065185E-02 Eh
 * total energy  :   -33.8435824 Eh     change       -0.1005875E-02 Eh
 * total energy  :   -33.8443434 Eh     change       -0.7609620E-03 Eh
 * total energy  :   -33.8448906 Eh     change       -0.5472870E-03 Eh
 * total energy  :   -33.8451131 Eh     change       -0.2225009E-03 Eh
 * total energy  :   -33.8460031 Eh     change       -0.1663649E-04 Eh
 * total energy  :   -33.8460204 Eh     change       -0.1736783E-04 Eh
 * total energy  :   -33.8460404 Eh     change       -0.2000124E-04 Eh
 * total energy  :   -33.8460572 Eh     change       -0.1670852E-04 Eh
 * total energy  :   -33.8460715 Eh     change       -0.1437896E-04 Eh
 * total energy  :   -33.8460904 Eh     change       -0.1889965E-04 Eh
 * total energy  :   -33.8461003 Eh     change       -0.9849776E-05 Eh
 * total energy  :   -33.8461060 Eh     change       -0.5683779E-05 Eh
 * total energy  :   -33.8461093 Eh     change       -0.3353283E-05 Eh
   *** GEOMETRY OPTIMIZATION CONVERGED AFTER 28 ITERATIONS ***

 final structure:
================
28
 xtb: 6.5.1 (fef0646)
N            0.88041741834634        0.01771370793708       -0.42149960785049
C            2.35281729708588       -0.08802958687790       -0.46163498576296
C            2.94526531028710        0.94883685691320       -1.41016015297159
C            4.47848573515416        0.91481189388862       -1.43904922550305
C            5.02178362956840        2.17869113598303       -2.11240353858696
C            6.54731944342525        2.17551602783120       -2.13727468660098
C            7.06708418734184        0.94178005445835       -2.86799938423295
C            6.53459833121849       -0.32373622282329       -2.20353571246071
C            5.00812008351848       -0.31745986469013       -2.17600504517698
Cl          -0.21900128375445       -1.99225396818888        1.58651907053009
H            0.48376762580680       -0.67735901304839        0.26187972918020
H            0.47460849477018       -0.18146174677096       -1.33899166085335
H            0.58909735931549        0.94986645159870       -0.11806028845410
H            2.61177404951833       -1.09833073038187       -0.77321455852271
H            2.73618883358742        0.05933969673961        0.54763327513722
H            2.63388141535246        1.94393207530111       -1.08820790090871
H            2.57347855969400        0.78567391756027       -2.42251988025176
H            4.84925654688381        0.88846536315730       -0.40879752936232
H            4.67035832937925        3.06378839977532       -1.57853962168966
H            4.64657674225014        2.23185801732322       -3.13668759110544
H            6.92787160461658        2.17414425924165       -1.11305794032002
H            6.91250210881759        3.08058500863270       -2.62709432986601
H            8.15902511352008        0.93566693253704       -2.86271979252341
H            6.73846635851322        0.97111472398748       -3.90935913226320
H            6.91571510574396       -0.38201465086671       -1.18120078356650
H            6.89115996159052       -1.20481759854233       -2.74133766320945
H            4.65887081015576       -1.22944544409215       -1.69068857635109
H            4.63388082830400       -0.31319569657688       -3.20199248646029

          :  Hamiltonian                  GFN2-xTB          :
         :: total energy             -33.846109318043 Eh    ::
         :: gradient norm              0.000412674473 Eh/a0 ::
         :: HOMO-LUMO gap             10.132280831380 eV    ::
         :: SCC energy               -34.261015455097 Eh    ::
         :: -> dispersion             -0.019510753963 Eh    ::
         :: -> Gsolv                  -0.071421420720 Eh    ::
         :: repulsion energy           0.414893390185 Eh    ::

    * Orbital Energies and Occupations

         #    Occupation            Energy/Eh            Energy/eV
      -------------------------------------------------------------
         1        2.0000           -1.0064596             -27.3872
       ...           ...                  ...                  ...
        19        2.0000           -0.4702640             -12.7965
        20        2.0000           -0.4576370             -12.4529
        21        2.0000           -0.4567939             -12.4300
        22        2.0000           -0.4520668             -12.3014
        23        2.0000           -0.4358687             -11.8606
        24        2.0000           -0.4301607             -11.7053
        25        2.0000           -0.4259436             -11.5905
        26        2.0000           -0.4142905             -11.2734
        27        2.0000           -0.4094255             -11.1410
        28        2.0000           -0.4041882             -10.9985
        29        2.0000           -0.4015692             -10.9273
        30        2.0000           -0.4005566             -10.8997
        31        2.0000           -0.4005319             -10.8990 (HOMO)
        32                         -0.0281774              -0.7667 (LUMO)
        33                          0.0592192               1.6114
        34                          0.0776525               2.1130
        35                          0.0829152               2.2562
        36                          0.0963181               2.6209
        37                          0.1037476               2.8231
        38                          0.1124121               3.0589
        39                          0.1168236               3.1789
        40                          0.1168511               3.1797
        41                          0.1179287               3.2090
        42                          0.1193248               3.2470
       ...                                ...                  ...
        63                          0.3242025               8.8220
      -------------------------------------------------------------
                  HL-Gap            0.3723545 Eh           10.1323 eV

     #   Z          covCN         q      C6AA      α(0)
     1   7 N        3.483    -0.167    24.606     7.367
     2   6 C        3.732    -0.022    21.052     6.549
     3   6 C        3.805    -0.088    22.172     6.703
     4   6 C        3.855    -0.022    20.932     6.507
     5   6 C        3.809    -0.068    21.788     6.644
     6   6 C        3.805    -0.060    21.655     6.625
     7   6 C        3.805    -0.060    21.659     6.625
     8   6 C        3.805    -0.060    21.645     6.623
     9   6 C        3.808    -0.069    21.823     6.650
    10  17 Cl       0.056    -0.946   124.839    17.005
    11   1 H        0.913     0.294     0.728     1.335
    12   1 H        0.859     0.298     0.720     1.329
    13   1 H        0.859     0.296     0.724     1.333
    14   1 H        0.925     0.092     1.862     2.134
    15   1 H        0.925     0.093     1.853     2.129
    16   1 H        0.924     0.065     2.136     2.286
    17   1 H        0.924     0.065     2.140     2.288
    18   1 H        0.924     0.038     2.476     2.461
    19   1 H        0.924     0.035     2.511     2.478
    20   1 H        0.924     0.040     2.443     2.444
    21   1 H        0.924     0.031     2.576     2.510
    22   1 H        0.924     0.028     2.621     2.532
    23   1 H        0.924     0.023     2.692     2.566
    24   1 H        0.924     0.034     2.536     2.490
    25   1 H        0.924     0.030     2.593     2.518
    26   1 H        0.924     0.026     2.647     2.544
    27   1 H        0.924     0.034     2.524     2.485
    28   1 H        0.924     0.041     2.432     2.439

Wiberg/Mayer (AO) data.
largest (>0.10) Wiberg bond orders for each atom

     #   Z sym  total        # sym  WBO       # sym  WBO       # sym  WBO
 ---------------------------------------------------------------------------
     1   7 N    3.647 --     2 C    0.967    12 H    0.897    13 H    0.897
                            11 H    0.831
     2   6 C    3.930 --     3 C    1.009    15 H    0.968     1 N    0.967
                            14 H    0.966
     3   6 C    3.990 --     2 C    1.009     4 C    0.993    17 H    0.972
                            16 H    0.971
     4   6 C    3.995 --     9 C    0.998     5 C    0.997     3 C    0.993
                            18 H    0.966
     5   6 C    3.997 --     6 C    1.008     4 C    0.997    20 H    0.976
                            19 H    0.976
     6   6 C    3.998 --     7 C    1.009     5 C    1.008    21 H    0.978
                            22 H    0.977
     7   6 C    3.998 --     8 C    1.009     6 C    1.009    23 H    0.978
                            24 H    0.977
     8   6 C    3.998 --     7 C    1.009     9 C    1.008    25 H    0.978
                            26 H    0.978
     9   6 C    3.997 --     8 C    1.008     4 C    0.998    28 H    0.976
                            27 H    0.974
    10  17 Cl   0.105
    11   1 H    0.914 --     1 N    0.831
    12   1 H    0.911 --     1 N    0.897
    13   1 H    0.912 --     1 N    0.897
    14   1 H    0.992 --     2 C    0.966
    15   1 H    0.991 --     2 C    0.968
    16   1 H    0.995 --     3 C    0.971
    17   1 H    0.996 --     3 C    0.972
    18   1 H    0.999 --     4 C    0.966
    19   1 H    0.999 --     5 C    0.976
    20   1 H    0.998 --     5 C    0.976
    21   1 H    0.999 --     6 C    0.978
    22   1 H    0.999 --     6 C    0.977
    23   1 H    0.999 --     7 C    0.978
    24   1 H    0.999 --     7 C    0.977
    25   1 H    0.999 --     8 C    0.978
    26   1 H    0.999 --     8 C    0.978
    27   1 H    0.999 --     9 C    0.974
    28   1 H    0.998 --     9 C    0.976
 ---------------------------------------------------------------------------

molecular dipole:
                 x           y           z       tot (Debye)
 q only:        2.136       3.664      -3.667
   full:        1.817       3.195      -3.199      12.384

           -------------------------------------------------
          | TOTAL ENERGY              -33.846109318043 Eh   |
          | GRADIENT NORM               0.000412674473 Eh/α |
          | HOMO-LUMO GAP              10.132280831380 eV   |
           -------------------------------------------------

 * finished run on 2023/01/24 at 14:57:46.046
