   * xtb version 6.5.1 (fef0646) compiled by 'conda@b96dff2e9fd6' on 2023-01-04
          program call               : xtb init.xyz --opt -c 0 -u 0 -P 16 --alpb water

   ID    Z sym.   atoms
    1    7 N      1
    2    6 C      2-5
    3   17 Cl     6
    4    1 H      7-18

      * Solvation model:               ALPB
        Solvent                        water
        Solvent mass                       1.8000E+01 g/mol
          :  Hamiltonian                  GFN2-xTB          :
 * total energy  :   -22.1870023 Eh     change       -0.1585367E-08 Eh
 * total energy  :   -22.1910036 Eh     change       -0.4001280E-02 Eh
 * total energy  :   -22.1922910 Eh     change       -0.1287427E-02 Eh
 * total energy  :   -22.1929823 Eh     change       -0.6913334E-03 Eh
 * total energy  :   -22.1936051 Eh     change       -0.6227996E-03 Eh
 * total energy  :   -22.1944588 Eh     change       -0.8537288E-03 Eh
 * total energy  :   -22.1948419 Eh     change       -0.3830184E-03 Eh
 * total energy  :   -22.1949485 Eh     change       -0.1066331E-03 Eh
 * total energy  :   -22.1950014 Eh     change       -0.5292754E-04 Eh
 * total energy  :   -22.1950573 Eh     change       -0.5591727E-04 Eh
 * total energy  :   -22.1961824 Eh     change       -0.1583827E-03 Eh
 * total energy  :   -22.1962895 Eh     change       -0.1071060E-03 Eh
 * total energy  :   -22.1963388 Eh     change       -0.4924585E-04 Eh
 * total energy  :   -22.1963759 Eh     change       -0.3713728E-04 Eh
 * total energy  :   -22.1963994 Eh     change       -0.2354721E-04 Eh
 * total energy  :   -22.1964153 Eh     change       -0.1582894E-04 Eh
 * total energy  :   -22.1964279 Eh     change       -0.1263100E-04 Eh
 * total energy  :   -22.1964333 Eh     change       -0.5414083E-05 Eh
 * total energy  :   -22.1964372 Eh     change       -0.3855207E-05 Eh
   *** GEOMETRY OPTIMIZATION CONVERGED AFTER 25 ITERATIONS ***

 final structure:
================
18
 xtb: 6.5.1 (fef0646)
N            1.13030280784935       -0.18058898064939        0.43813435294782
C            2.58842371371246       -0.24009252386941        0.20678741737619
C            2.95444657231835       -1.25869839398798       -0.87445901075818
C            2.57330363123219       -0.74612791458801       -2.26015736908374
C            4.45238348497745       -1.55405713619685       -0.80908990680706
Cl          -0.78226784443865        0.82350313363612       -1.74059564101231
H            0.90563331656494        0.45992511317169        1.20283821611165
H            0.76098554561556       -1.10989082483161        0.65512561796111
H            0.60150834012858        0.16392901021579       -0.39942217473035
H            3.07693074374833       -0.51713489343207        1.14224627406220
H            2.93556085430728        0.74729865534787       -0.09641104984287
H            2.40981879848026       -2.18851724499344       -0.68423281530871
H            3.16464590788818        0.12986489733072       -2.51752052703468
H            1.52311813235070       -0.46992961530924       -2.31344423635622
H            2.75669856413243       -1.50885940965741       -3.01290532500930
H            5.02479871501126       -0.64257862447523       -0.96209521987281
H            4.73061730575032       -2.26212334043564       -1.58469809265335
H            4.72461141034983       -1.97808190727504        0.15374948999801

          :  Hamiltonian                  GFN2-xTB          :
         :: total energy             -22.196437179075 Eh    ::
         :: gradient norm              0.000306065764 Eh/a0 ::
         :: HOMO-LUMO gap             10.142504298645 eV    ::
         :: SCC energy               -22.448226089817 Eh    ::
         :: -> dispersion             -0.010015127279 Eh    ::
         :: -> Gsolv                  -0.071919141591 Eh    ::
         :: repulsion energy           0.251753541684 Eh    ::

    * Orbital Energies and Occupations

         #    Occupation            Energy/Eh            Energy/eV
      -------------------------------------------------------------
         1        2.0000           -1.0066987             -27.3937
       ...           ...                  ...                  ...
         8        2.0000           -0.5476558             -14.9025
         9        2.0000           -0.5343556             -14.5406
        10        2.0000           -0.5007551             -13.6262
        11        2.0000           -0.4857964             -13.2192
        12        2.0000           -0.4738327             -12.8936
        13        2.0000           -0.4575368             -12.4502
        14        2.0000           -0.4499624             -12.2441
        15        2.0000           -0.4351372             -11.8407
        16        2.0000           -0.4290934             -11.6762
        17        2.0000           -0.4239796             -11.5371
        18        2.0000           -0.4034837             -10.9793
        19        2.0000           -0.4010062             -10.9119
        20        2.0000           -0.3996478             -10.8750 (HOMO)
        21                         -0.0269176              -0.7325 (LUMO)
        22                          0.0728087               1.9812
        23                          0.0899535               2.4478
        24                          0.0948769               2.5817
        25                          0.1118917               3.0447
        26                          0.1168330               3.1792
        27                          0.1172561               3.1907
        28                          0.1189310               3.2363
        29                          0.1194140               3.2494
        30                          0.1262785               3.4362
        31                          0.1380922               3.7577
       ...                                ...                  ...
        41                          0.3040424               8.2734
      -------------------------------------------------------------
                  HL-Gap            0.3727302 Eh           10.1425 eV

     #   Z          covCN         q      C6AA      α(0)
     1   7 N        3.483    -0.164    24.531     7.356
     2   6 C        3.736    -0.035    21.276     6.582
     3   6 C        3.850    -0.017    20.839     6.493
     4   6 C        3.756    -0.121    22.877     6.820
     5   6 C        3.757    -0.127    22.988     6.836
     6  17 Cl       0.033    -0.950   124.998    17.015
     7   1 H        0.859     0.303     0.706     1.316
     8   1 H        0.859     0.294     0.730     1.339
     9   1 H        0.890     0.290     0.742     1.348
    10   1 H        0.924     0.106     1.734     2.059
    11   1 H        0.925     0.100     1.789     2.092
    12   1 H        0.924     0.055     2.260     2.351
    13   1 H        0.925     0.038     2.473     2.459
    14   1 H        0.925     0.049     2.334     2.389
    15   1 H        0.925     0.034     2.531     2.488
    16   1 H        0.925     0.047     2.355     2.400
    17   1 H        0.925     0.047     2.362     2.403
    18   1 H        0.925     0.052     2.294     2.368

Wiberg/Mayer (AO) data.
largest (>0.10) Wiberg bond orders for each atom

     #   Z sym  total        # sym  WBO       # sym  WBO       # sym  WBO
 ---------------------------------------------------------------------------
     1   7 N    3.648 --     2 C    0.966     8 H    0.897     7 H    0.894
                             9 H    0.840
     2   6 C    3.927 --     3 C    0.997    11 H    0.967     1 N    0.966
                            10 H    0.966
     3   6 C    3.994 --     4 C    1.010     5 C    1.006     2 C    0.997
                            12 H    0.964
     4   6 C    3.994 --     3 C    1.010    15 H    0.986    13 H    0.986
                            14 H    0.979
     5   6 C    3.993 --     3 C    1.006    16 H    0.986    17 H    0.985
                            18 H    0.985
     6  17 Cl   0.097
     7   1 H    0.908 --     1 N    0.894
     8   1 H    0.913 --     1 N    0.897
     9   1 H    0.916 --     1 N    0.840
    10   1 H    0.989 --     2 C    0.966
    11   1 H    0.990 --     2 C    0.967
    12   1 H    0.997 --     3 C    0.964
    13   1 H    0.999 --     4 C    0.986
    14   1 H    0.998 --     4 C    0.979
    15   1 H    0.999 --     4 C    0.986
    16   1 H    0.998 --     5 C    0.986
    17   1 H    0.998 --     5 C    0.985
    18   1 H    0.997 --     5 C    0.985
 ---------------------------------------------------------------------------

molecular dipole:
                 x           y           z       tot (Debye)
 q only:        3.698      -1.861       3.890
   full:        3.061      -1.596       3.422      12.355

           -------------------------------------------------
          | TOTAL ENERGY              -22.196437179075 Eh   |
          | GRADIENT NORM               0.000306065764 Eh/α |
          | HOMO-LUMO GAP              10.142504298645 eV   |
           -------------------------------------------------

 * finished run on 2023/01/24 at 14:55:54.097
