   * xtb version 6.5.1 (fef0646) compiled by 'conda@b96dff2e9fd6' on 2023-01-04
          program call               : xtb init.xyz --opt -c 1 -u 0 -P 16 --alpb water

   ID    Z sym.   atoms
    1    7 N      1
    2    6 C      2-10
    3    1 H      11-24

      * Solvation model:               ALPB
        Solvent                        water
        Solvent mass                       1.8000E+01 g/mol
          :  Hamiltonian                  GFN2-xTB          :
 * total energy  :   -28.9926446 Eh     change       -0.2753389E-09 Eh
 * total energy  :   -28.9948517 Eh     change       -0.2207119E-02 Eh
 * total energy  :   -28.9951073 Eh     change       -0.2555433E-03 Eh
 * total energy  :   -28.9951611 Eh     change       -0.5381961E-04 Eh
 * total energy  :   -28.9951917 Eh     change       -0.3059665E-04 Eh
 * total energy  :   -28.9952088 Eh     change       -0.1715243E-04 Eh
 * total energy  :   -28.9952329 Eh     change       -0.2411117E-04 Eh
 * total energy  :   -28.9952563 Eh     change       -0.2330435E-04 Eh
 * total energy  :   -28.9952792 Eh     change       -0.2295113E-04 Eh
 * total energy  :   -28.9953026 Eh     change       -0.2342041E-04 Eh
 * total energy  :   -28.9953603 Eh     change       -0.1060795E-04 Eh
 * total energy  :   -28.9953704 Eh     change       -0.1003183E-04 Eh
 * total energy  :   -28.9953804 Eh     change       -0.1003377E-04 Eh
 * total energy  :   -28.9953905 Eh     change       -0.1006807E-04 Eh
 * total energy  :   -28.9954004 Eh     change       -0.9924083E-05 Eh
 * total energy  :   -28.9954099 Eh     change       -0.9543322E-05 Eh
 * total energy  :   -28.9954188 Eh     change       -0.8837479E-05 Eh
 * total energy  :   -28.9954266 Eh     change       -0.7869942E-05 Eh
 * total energy  :   -28.9954311 Eh     change       -0.4429931E-05 Eh
   *** GEOMETRY OPTIMIZATION CONVERGED AFTER 22 ITERATIONS ***

 final structure:
================
24
 xtb: 6.5.1 (fef0646)
N            1.00204642283953       -1.63069784547271       -1.74291574273145
C            2.48505256094720       -1.60875782891593       -1.73105805049724
C            2.99853957684395       -0.21975216270401       -1.36949700677398
C            4.53154396989862       -0.18803726679570       -1.38486339195040
C            5.08868081540895       -0.48662301489894       -2.75059349792755
C            4.90205641342967        0.41099211420989       -3.79634051263467
C            5.39915402535027        0.13977843987867       -5.05822412898773
C            6.09530108797455       -1.03482043762613       -5.29320888221216
C            6.29142969151866       -1.93321207810333       -4.25833413573485
C            5.78771320582480       -1.66127967091831       -2.99761562055085
H            0.65334829688301       -2.56383605592252       -1.98952637981975
H            0.64570946511882       -0.95431938718078       -2.42836515435482
H            0.63658923870106       -1.37502614838827       -0.81777747760968
H            2.85870270444890       -1.88802362753568       -2.71661884107266
H            2.84898115853054       -2.33629359071533       -1.00584757226224
H            2.65981345168818        0.06306214194143       -0.37256040522692
H            2.62756891034503        0.51487678379274       -2.08450247390603
H            4.92217007067096       -0.91094103977237       -0.66780969207464
H            4.86650297759677        0.80361627223092       -1.07519410184212
H            4.37698116643072        1.33861136170106       -3.62129644770626
H            5.25102888531299        0.84712175079004       -5.86117525298888
H            6.48936712863202       -1.24477574442461       -6.27680207669834
H            6.84126206439436       -2.84626938443434       -4.43442909056971
H            5.95235671121049       -2.36715358073551       -2.19657406386699

          :  Hamiltonian                  GFN2-xTB          :
         :: total energy             -28.995431062031 Eh    ::
         :: gradient norm              0.000201183924 Eh/a0 ::
         :: HOMO-LUMO gap              4.725314157615 eV    ::
         :: SCC energy               -29.494648155232 Eh    ::
         :: -> dispersion             -0.017498989146 Eh    ::
         :: -> Gsolv                  -0.118948182516 Eh    ::
         :: repulsion energy           0.499069188111 Eh    ::

    * Orbital Energies and Occupations

         #    Occupation            Energy/Eh            Energy/eV
      -------------------------------------------------------------
         1        2.0000           -0.6921666             -18.8348
       ...           ...                  ...                  ...
        15        2.0000           -0.4992780             -13.5860
        16        2.0000           -0.4907419             -13.3538
        17        2.0000           -0.4860562             -13.2263
        18        2.0000           -0.4807538             -13.0820
        19        2.0000           -0.4737209             -12.8906
        20        2.0000           -0.4691570             -12.7664
        21        2.0000           -0.4616150             -12.5612
        22        2.0000           -0.4489087             -12.2154
        23        2.0000           -0.4391317             -11.9494
        24        2.0000           -0.4182620             -11.3815
        25        2.0000           -0.4163397             -11.3292
        26        2.0000           -0.4012249             -10.9179
        27        2.0000           -0.3939561             -10.7201 (HOMO)
        28                         -0.2203040              -5.9948 (LUMO)
        29                         -0.2194722              -5.9721
        30                         -0.0917124              -2.4956
        31                         -0.0497654              -1.3542
        32                          0.0531273               1.4457
        33                          0.0850833               2.3152
        34                          0.0943228               2.5667
        35                          0.1105352               3.0078
        36                          0.1251851               3.4065
        37                          0.1316234               3.5817
        38                          0.1473017               4.0083
       ...                                ...                  ...
        54                          0.6659031              18.1201
      -------------------------------------------------------------
                  HL-Gap            0.1736521 Eh            4.7253 eV

     #   Z          covCN         q      C6AA      α(0)
     1   7 N        3.485    -0.162    24.499     7.351
     2   6 C        3.732    -0.036    21.300     6.587
     3   6 C        3.803    -0.083    22.080     6.690
     4   6 C        3.809    -0.078    21.989     6.675
     5   6 C        2.969     0.011    27.763     8.643
     6   6 C        2.925    -0.045    29.111     8.848
     7   6 C        2.918    -0.036    28.903     8.816
     8   6 C        2.920    -0.038    28.943     8.822
     9   6 C        2.919    -0.036    28.896     8.815
    10   6 C        2.925    -0.047    29.165     8.856
    11   1 H        0.859     0.316     0.668     1.280
    12   1 H        0.859     0.308     0.690     1.301
    13   1 H        0.859     0.310     0.683     1.295
    14   1 H        0.924     0.101     1.778     2.085
    15   1 H        0.925     0.108     1.710     2.045
    16   1 H        0.924     0.073     2.055     2.242
    17   1 H        0.925     0.069     2.093     2.263
    18   1 H        0.924     0.053     2.279     2.361
    19   1 H        0.924     0.056     2.249     2.345
    20   1 H        0.926     0.044     2.399     2.422
    21   1 H        0.926     0.026     2.644     2.543
    22   1 H        0.926     0.019     2.746     2.592
    23   1 H        0.926     0.025     2.652     2.547
    24   1 H        0.926     0.041     2.439     2.442

Wiberg/Mayer (AO) data.
largest (>0.10) Wiberg bond orders for each atom

     #   Z sym  total        # sym  WBO       # sym  WBO       # sym  WBO
 ---------------------------------------------------------------------------
     1   7 N    3.653 --     2 C    0.967    12 H    0.890    13 H    0.889
                            11 H    0.887
     2   6 C    3.927 --     3 C    1.011     1 N    0.967    14 H    0.966
                            15 H    0.966
     3   6 C    3.990 --     2 C    1.011     4 C    0.991    16 H    0.972
                            17 H    0.971
     4   6 C    3.994 --     5 C    1.012     3 C    0.991    18 H    0.974
                            19 H    0.964
     5   6 C    3.988 --    10 C    1.415     6 C    1.408     4 C    1.012
                             8 C    0.110
     6   6 C    3.991 --     7 C    1.449     5 C    1.408    20 H    0.968
                             9 C    0.112
     7   6 C    3.992 --     6 C    1.449     8 C    1.435    21 H    0.971
                            10 C    0.110
     8   6 C    3.993 --     9 C    1.442     7 C    1.435    22 H    0.972
                             5 C    0.110
     9   6 C    3.992 --     8 C    1.442    10 C    1.441    23 H    0.971
                             6 C    0.112
    10   6 C    3.990 --     9 C    1.441     5 C    1.415    24 H    0.968
                             7 C    0.110
    11   1 H    0.900 --     1 N    0.887
    12   1 H    0.905 --     1 N    0.890
    13   1 H    0.904 --     1 N    0.889
    14   1 H    0.990 --     2 C    0.966
    15   1 H    0.988 --     2 C    0.966
    16   1 H    0.994 --     3 C    0.972
    17   1 H    0.995 --     3 C    0.971
    18   1 H    0.997 --     4 C    0.974
    19   1 H    0.997 --     4 C    0.964
    20   1 H    0.998 --     6 C    0.968
    21   1 H    0.999 --     7 C    0.971
    22   1 H    0.999 --     8 C    0.972
    23   1 H    0.999 --     9 C    0.971
    24   1 H    0.998 --    10 C    0.968
 ---------------------------------------------------------------------------

molecular dipole:
                 x           y           z       tot (Debye)
 q only:        1.959      -2.904      -2.891
   full:        2.006      -2.906      -3.042      11.846

           -------------------------------------------------
          | TOTAL ENERGY              -28.995431062031 Eh   |
          | GRADIENT NORM               0.000201183924 Eh/α |
          | HOMO-LUMO GAP               4.725314157615 eV   |
           -------------------------------------------------

 * finished run on 2023/01/24 at 14:57:48.646
