   * xtb version 6.5.1 (fef0646) compiled by 'conda@b96dff2e9fd6' on 2023-01-04
          program call               : xtb init.xyz --opt -c 0 -u 0 -P 16 --alpb water

   ID    Z sym.   atoms
    1    7 N      1, 10, 11
    2    6 C      2-9, 12-17
    3   17 Cl     18
    4    1 H      19-34

      * Solvation model:               ALPB
        Solvent                        water
        Solvent mass                       1.8000E+01 g/mol
          :  Hamiltonian                  GFN2-xTB          :
 * total energy  :   -51.4081454 Eh     change       -0.1028241E-08 Eh
 * total energy  :   -51.4156361 Eh     change       -0.7490684E-02 Eh
 * total energy  :   -51.4186848 Eh     change       -0.3048688E-02 Eh
 * total energy  :   -51.4209621 Eh     change       -0.2277373E-02 Eh
 * total energy  :   -51.4229106 Eh     change       -0.1948437E-02 Eh
 * total energy  :   -51.4247592 Eh     change       -0.1848579E-02 Eh
 * total energy  :   -51.4262017 Eh     change       -0.1442548E-02 Eh
 * total energy  :   -51.4271224 Eh     change       -0.9207022E-03 Eh
 * total energy  :   -51.4276503 Eh     change       -0.5278921E-03 Eh
 * total energy  :   -51.4278472 Eh     change       -0.1968665E-03 Eh
 * total energy  :   -51.4287499 Eh     change       -0.1034211E-04 Eh
 * total energy  :   -51.4287837 Eh     change       -0.3373753E-04 Eh
 * total energy  :   -51.4287927 Eh     change       -0.9038955E-05 Eh
 * total energy  :   -51.4288044 Eh     change       -0.1173797E-04 Eh
 * total energy  :   -51.4288135 Eh     change       -0.9079165E-05 Eh
 * total energy  :   -51.4288217 Eh     change       -0.8182300E-05 Eh
 * total energy  :   -51.4288298 Eh     change       -0.8075279E-05 Eh
 * total energy  :   -51.4288368 Eh     change       -0.7029570E-05 Eh
 * total energy  :   -51.4288407 Eh     change       -0.3875859E-05 Eh
   *** GEOMETRY OPTIMIZATION CONVERGED AFTER 32 ITERATIONS ***

 final structure:
================
34
 xtb: 6.5.1 (fef0646)
N            1.06142840169757        0.94556663015547       -2.42260304413055
C            2.53046688327651        1.07116689108363       -2.47962843884848
C            3.07877452876106        1.34359821539033       -1.07774810807806
C            4.57863231597878        1.30297666410041       -1.08460103842289
C            5.32458796121088        2.47654940072065       -1.16767940035505
C            6.70062721719498        2.43874970502100       -1.20320891672385
C            5.24546691151555        0.08102314667904       -1.03934402018147
C            6.62186740389305        0.02707855142748       -1.06905041912153
C            7.36955985834288        1.20788840398066       -1.15767633152747
N            8.74225600405664        1.05827675263991       -1.17381989008073
N            9.42971922470255        2.11917476631860       -1.34655046331709
C           10.80385084043055        1.96837977051872       -1.37855039654227
C           11.46429168220761        0.73457705430525       -1.45062330330691
C           12.84099016375832        0.69440183660759       -1.50928604809696
C           13.57700330408932        1.87162571330733       -1.49402622993095
C           12.93007865510125        3.09678245116598       -1.42495420089939
C           11.55204062962983        3.15078898271027       -1.37359829539325
Cl           0.34326929330299       -1.21174495532436       -0.37881004857956
H            0.66792772342701        0.70360329213860       -3.33453751138289
H            0.63513175855021        1.80999802434345       -2.07989774178983
H            0.79858033193740        0.18487819317204       -1.74332688231642
H            2.80767512769819        1.87989491957598       -3.15669232060414
H            2.94846096309206        0.13577360758660       -2.85003022763445
H            2.68965717166388        0.57450537041891       -0.40794295594468
H            2.74023931106252        2.31746854567421       -0.72597679536000
H            4.81900025237926        3.43008010994160       -1.19643349535576
H            7.28877731202918        3.34161998310833       -1.25931835228883
H            4.67280983176297       -0.83178717519618       -0.96556393456112
H            7.14679989240876       -0.91452538170913       -1.02976330484678
H           10.87205437852500       -0.16748947592851       -1.46723367371277
H           13.34823940230953       -0.25700951408936       -1.56800982206809
H           14.65456745556897        1.83256054542706       -1.53960647603609
H           13.50466647101313        4.01037416413379       -1.41498149132732
H           11.02926133747926        4.09262481047688       -1.31819642126445

          :  Hamiltonian                  GFN2-xTB          :
         :: total energy             -51.428840687687 Eh    ::
         :: gradient norm              0.000335580271 Eh/a0 ::
         :: HOMO-LUMO gap              0.766810531974 eV    ::
         :: SCC energy               -52.209198770242 Eh    ::
         :: -> dispersion             -0.031041186452 Eh    ::
         :: -> Gsolv                  -0.081713515587 Eh    ::
         :: repulsion energy           0.780706778574 Eh    ::

    * Orbital Energies and Occupations

         #    Occupation            Energy/Eh            Energy/eV
      -------------------------------------------------------------
         1        2.0000           -1.0066714             -27.3929
       ...           ...                  ...                  ...
        35        2.0000           -0.4410194             -12.0007
        36        2.0000           -0.4363286             -11.8731
        37        2.0000           -0.4335427             -11.7973
        38        2.0000           -0.4231853             -11.5155
        39        2.0000           -0.4194439             -11.4137
        40        2.0000           -0.4184315             -11.3861
        41        2.0000           -0.4098525             -11.1527
        42        2.0000           -0.4085898             -11.1183
        43        2.0000           -0.4028013             -10.9608
        44        2.0000           -0.4003018             -10.8928
        45        2.0000           -0.4001019             -10.8873
        46        2.0000           -0.3855573             -10.4915
        47        2.0000           -0.3356752              -9.1342 (HOMO)
        48        0.0000           -0.3074955              -8.3674 (LUMO)
        49                         -0.2267233              -6.1695
        50                         -0.2248378              -6.1181
        51                         -0.2176641              -5.9229
        52                         -0.1921784              -5.2294
        53                         -0.0936111              -2.5473
        54                         -0.0842498              -2.2926
        55                         -0.0255427              -0.6951
        56                          0.0782875               2.1303
        57                          0.0810975               2.2068
        58                          0.0991478               2.6980
       ...                                ...                  ...
        93                          0.6626986              18.0329
      -------------------------------------------------------------
                  HL-Gap            0.0281798 Eh            0.7668 eV

     #   Z          covCN         q      C6AA      α(0)
     1   7 N        3.484    -0.170    24.664     7.376
     2   6 C        3.734    -0.021    21.041     6.547
     3   6 C        3.809    -0.088    22.167     6.702
     4   6 C        2.971     0.026    27.413     8.588
     5   6 C        2.921    -0.043    29.074     8.842
     6   6 C        2.916    -0.039    28.961     8.825
     7   6 C        2.921    -0.041    29.009     8.832
     8   6 C        2.925    -0.038    28.948     8.823
     9   6 C        2.940     0.069    26.459     8.436
    10   7 N        1.942    -0.172    25.524     7.491
    11   7 N        1.943    -0.172    25.519     7.491
    12   6 C        2.939     0.072    26.380     8.424
    13   6 C        2.918    -0.038    28.950     8.823
    14   6 C        2.917    -0.033    28.826     8.804
    15   6 C        2.920    -0.030    28.743     8.792
    16   6 C        2.917    -0.034    28.841     8.807
    17   6 C        2.927    -0.039    28.972     8.827
    18  17 Cl       0.050    -0.947   124.851    17.006
    19   1 H        0.859     0.306     0.696     1.307
    20   1 H        0.859     0.300     0.714     1.324
    21   1 H        0.906     0.297     0.720     1.327
    22   1 H        0.924     0.108     1.715     2.048
    23   1 H        0.925     0.098     1.801     2.099
    24   1 H        0.924     0.077     2.008     2.216
    25   1 H        0.925     0.077     2.014     2.219
    26   1 H        0.926     0.062     2.177     2.307
    27   1 H        0.926     0.056     2.249     2.345
    28   1 H        0.926     0.051     2.312     2.378
    29   1 H        0.926     0.051     2.305     2.374
    30   1 H        0.926     0.051     2.303     2.373
    31   1 H        0.926     0.046     2.370     2.407
    32   1 H        0.926     0.051     2.313     2.378
    33   1 H        0.926     0.050     2.316     2.380
    34   1 H        0.926     0.057     2.234     2.337

Wiberg/Mayer (AO) data.
largest (>0.10) Wiberg bond orders for each atom

     #   Z sym  total        # sym  WBO       # sym  WBO       # sym  WBO
 ---------------------------------------------------------------------------
     1   7 N    3.642 --     2 C    0.972    20 H    0.895    19 H    0.892
                            21 H    0.830
     2   6 C    3.929 --     3 C    0.990     1 N    0.972    23 H    0.968
                            22 H    0.967
     3   6 C    3.988 --     4 C    1.015     2 C    0.990    25 H    0.969
                            24 H    0.961
     4   6 C    3.966 --     7 C    1.389     5 C    1.387     3 C    1.015
     5   6 C    3.988 --     6 C    1.483     4 C    1.387    26 H    0.965
     6   6 C    3.982 --     5 C    1.483     9 C    1.325    27 H    0.966
     7   6 C    3.989 --     8 C    1.480     4 C    1.389    28 H    0.967
     8   6 C    3.974 --     7 C    1.480     9 C    1.328    29 H    0.968
     9   6 C    3.976 --     8 C    1.328     6 C    1.325    10 N    1.161
    10   7 N    3.028 --    11 N    1.641     9 C    1.161
    11   7 N    3.029 --    10 N    1.641    12 C    1.154
    12   6 C    3.978 --    17 C    1.337    13 C    1.330    11 N    1.154
    13   6 C    3.982 --    14 C    1.475    12 C    1.330    30 H    0.966
                            16 C    0.101
    14   6 C    3.991 --    13 C    1.475    15 C    1.417    31 H    0.969
    15   6 C    3.968 --    16 C    1.425    14 C    1.417    32 H    0.970
    16   6 C    3.990 --    17 C    1.467    15 C    1.425    33 H    0.969
                            13 C    0.101
    17   6 C    3.972 --    16 C    1.467    12 C    1.337    34 H    0.967
    18  17 Cl   0.104
    19   1 H    0.906 --     1 N    0.892
    20   1 H    0.910 --     1 N    0.895
    21   1 H    0.912 --     1 N    0.830
    22   1 H    0.988 --     2 C    0.967
    23   1 H    0.990 --     2 C    0.968
    24   1 H    0.992 --     3 C    0.961
    25   1 H    0.993 --     3 C    0.969
    26   1 H    0.996 --     5 C    0.965
    27   1 H    0.997 --     6 C    0.966
    28   1 H    0.997 --     7 C    0.967
    29   1 H    0.997 --     8 C    0.968
    30   1 H    0.997 --    13 C    0.966
    31   1 H    0.998 --    14 C    0.969
    32   1 H    0.997 --    15 C    0.970
    33   1 H    0.997 --    16 C    0.969
    34   1 H    0.997 --    17 C    0.967
 ---------------------------------------------------------------------------

molecular dipole:
                 x           y           z       tot (Debye)
 q only:        0.963       3.942      -3.611
   full:        0.700       3.348      -3.124      11.773

           -------------------------------------------------
          | TOTAL ENERGY              -51.428840687687 Eh   |
          | GRADIENT NORM               0.000335580271 Eh/α |
          | HOMO-LUMO GAP               0.766810531974 eV   |
           -------------------------------------------------

 * finished run on 2023/01/24 at 15:23:41.970
