   * xtb version 6.5.1 (fef0646) compiled by 'conda@b96dff2e9fd6' on 2023-01-04
          program call               : xtb init.xyz --opt -c 1 -u 0 -P 16 --input xtb.inp

   ID    Z sym.   atoms
    1    7 N      1
    2    6 C      2-8
    3    1 H      9-24

          :  Hamiltonian                  GFN2-xTB          :
 * total energy  :   -25.6575845 Eh     change       -0.1310632E-09 Eh
 * total energy  :   -25.6590258 Eh     change       -0.1441366E-02 Eh
 * total energy  :   -25.6594041 Eh     change       -0.3783015E-03 Eh
 * total energy  :   -25.6595134 Eh     change       -0.1092157E-03 Eh
 * total energy  :   -25.6595823 Eh     change       -0.6893493E-04 Eh
 * total energy  :   -25.6596275 Eh     change       -0.4518862E-04 Eh
 * total energy  :   -25.6596675 Eh     change       -0.4002313E-04 Eh
 * total energy  :   -25.6596874 Eh     change       -0.1993527E-04 Eh
 * total energy  :   -25.6597030 Eh     change       -0.1555041E-04 Eh
 * total energy  :   -25.6597089 Eh     change       -0.5929178E-05 Eh
 * total energy  :   -25.6597138 Eh     change       -0.4926655E-05 Eh
   *** GEOMETRY OPTIMIZATION CONVERGED AFTER 11 ITERATIONS ***

 final structure:
================
24
 xtb: 6.5.1 (fef0646)
N            3.31658362056604       -0.58230021617236       -1.17193071737929
C            2.53204933305980       -0.05066709224371       -0.01385996596672
C            2.91867830670462       -0.76919344244036        1.27892831050880
C            2.55994733141853       -2.25729255874781        1.23114110878455
C            2.94728139080667       -2.93734626749809        2.54491068539532
C            2.24689745655568       -2.26992199844488        3.72319552280560
C            2.58330685101836       -0.78349884156177        3.77055613917041
C            2.19910574319648       -0.10449223208605        2.45833081138145
H            3.01775575760704       -0.16392409428573       -2.06041250941521
H            3.17979814202855       -1.60392888326169       -1.20800491675017
H            4.31802265340521       -0.39616096056378       -1.03204106647968
H            1.47140781264568       -0.20116483951678       -0.22089412836843
H            2.72259667467654        1.01982351527138        0.07288310061326
H            3.99802789187169       -0.66606533976537        1.43723208729974
H            3.07682553753049       -2.77084293121522        0.41233137973829
H            1.48433596717677       -2.36644542122656        1.07850521181188
H            4.02894723355881       -2.87482975959365        2.68037903382864
H            2.67721528138869       -3.99242553289622        2.50009926759105
H            2.55756914360259       -2.74800087323991        4.65131015439987
H            1.16743774778264       -2.39780074714658        3.62668246250965
H            3.65251273542061       -0.65488904132653        3.94904059871005
H            2.04907904161599       -0.30761532646540        4.59214905611798
H            2.45713400670280        0.95465101809287        2.50151519532486
H            1.12047433965984       -0.18403813366589        2.31373317836797

          :  Hamiltonian                  GFN2-xTB          :
         :: total energy             -25.659713846935 Eh    ::
         :: gradient norm              0.000416675504 Eh/a0 ::
         :: HOMO-LUMO gap              7.425185159471 eV    ::
         :: SCC energy               -26.027793133608 Eh    ::
         :: -> dispersion             -0.015409634447 Eh    ::
         :: repulsion energy           0.367988230264 Eh    ::

    * Orbital Energies and Occupations

         #    Occupation            Energy/Eh            Energy/eV
      -------------------------------------------------------------
         1        2.0000           -0.8919435             -24.2710
       ...           ...                  ...                  ...
        12        2.0000           -0.6636485             -18.0588
        13        2.0000           -0.6559237             -17.8486
        14        2.0000           -0.6332645             -17.2320
        15        2.0000           -0.6253028             -17.0154
        16        2.0000           -0.6162899             -16.7701
        17        2.0000           -0.5999611             -16.3258
        18        2.0000           -0.5923805             -16.1195
        19        2.0000           -0.5910457             -16.0832
        20        2.0000           -0.5759376             -15.6721
        21        2.0000           -0.5593490             -15.2207
        22        2.0000           -0.5379821             -14.6392
        23        2.0000           -0.5343113             -14.5394
        24        2.0000           -0.5339530             -14.5296 (HOMO)
        25                         -0.2610825              -7.1044 (LUMO)
        26                         -0.1625305              -4.4227
        27                         -0.1085920              -2.9549
        28                         -0.1032280              -2.8090
        29                         -0.0744051              -2.0247
        30                         -0.0619622              -1.6861
        31                         -0.0277075              -0.7540
        32                         -0.0235912              -0.6419
        33                         -0.0081214              -0.2210
        34                         -0.0025338              -0.0689
        35                          0.0046013               0.1252
       ...                                ...                  ...
        48                          0.1952625               5.3134
      -------------------------------------------------------------
                  HL-Gap            0.2728705 Eh            7.4252 eV

     #   Z          covCN         q      C6AA      α(0)
     1   7 N        3.482    -0.129    23.796     7.245
     2   6 C        3.734    -0.039    21.363     6.597
     3   6 C        3.855    -0.033    21.116     6.535
     4   6 C        3.806    -0.069    21.817     6.649
     5   6 C        3.806    -0.060    21.653     6.624
     6   6 C        3.806    -0.066    21.759     6.640
     7   6 C        3.806    -0.063    21.698     6.631
     8   6 C        3.809    -0.067    21.771     6.642
     9   1 H        0.859     0.267     0.819     1.418
    10   1 H        0.859     0.273     0.799     1.400
    11   1 H        0.859     0.269     0.813     1.413
    12   1 H        0.924     0.103     1.755     2.071
    13   1 H        0.924     0.102     1.770     2.080
    14   1 H        0.924     0.055     2.259     2.351
    15   1 H        0.924     0.016     2.788     2.611
    16   1 H        0.924     0.051     2.301     2.372
    17   1 H        0.924     0.043     2.411     2.428
    18   1 H        0.925     0.050     2.314     2.379
    19   1 H        0.925     0.053     2.285     2.364
    20   1 H        0.924     0.046     2.370     2.408
    21   1 H        0.924     0.045     2.383     2.414
    22   1 H        0.925     0.055     2.261     2.352
    23   1 H        0.924     0.044     2.392     2.419
    24   1 H        0.924     0.051     2.301     2.372

Wiberg/Mayer (AO) data.
largest (>0.10) Wiberg bond orders for each atom

     #   Z sym  total        # sym  WBO       # sym  WBO       # sym  WBO
 ---------------------------------------------------------------------------
     1   7 N    3.674 --     2 C    0.921     9 H    0.914    11 H    0.912
                            10 H    0.895
     2   6 C    3.883 --     3 C    0.991    13 H    0.967    12 H    0.966
                             1 N    0.921
     3   6 C    3.979 --     4 C    0.996     2 C    0.991     8 C    0.986
                            14 H    0.962
     4   6 C    3.994 --     5 C    1.004     3 C    0.996    16 H    0.975
                            15 H    0.966
     5   6 C    3.994 --     6 C    1.010     4 C    1.004    17 H    0.977
                            18 H    0.975
     6   6 C    3.995 --     7 C    1.010     5 C    1.010    20 H    0.976
                            19 H    0.975
     7   6 C    3.994 --     6 C    1.010     8 C    1.006    21 H    0.976
                            22 H    0.974
     8   6 C    3.990 --     7 C    1.006     3 C    0.986    23 H    0.975
                            24 H    0.975
     9   1 H    0.928 --     1 N    0.914
    10   1 H    0.925 --     1 N    0.895
    11   1 H    0.928 --     1 N    0.912
    12   1 H    0.989 --     2 C    0.966
    13   1 H    0.989 --     2 C    0.967
    14   1 H    0.997 --     3 C    0.962
    15   1 H    1.000 --     4 C    0.966
    16   1 H    0.997 --     4 C    0.975
    17   1 H    0.998 --     5 C    0.977
    18   1 H    0.997 --     5 C    0.975
    19   1 H    0.997 --     6 C    0.975
    20   1 H    0.998 --     6 C    0.976
    21   1 H    0.998 --     7 C    0.976
    22   1 H    0.997 --     7 C    0.974
    23   1 H    0.998 --     8 C    0.975
    24   1 H    0.997 --     8 C    0.975
 ---------------------------------------------------------------------------

molecular dipole:
                 x           y           z       tot (Debye)
 q only:        5.895      -1.253      -0.931
   full:        6.020      -1.258      -1.284      15.969

           -------------------------------------------------
          | TOTAL ENERGY              -25.659713846935 Eh   |
          | GRADIENT NORM               0.000416675504 Eh/α |
          | HOMO-LUMO GAP               7.425185159471 eV   |
           -------------------------------------------------

 * finished run on 2023/01/23 at 18:58:07.295
