   * xtb version 6.5.1 (fef0646) compiled by 'conda@b96dff2e9fd6' on 2023-01-04
          program call               : xtb init.xyz --opt -c 0 -u 0 -P 16

   ID    Z sym.   atoms
    1    7 N      1
    2    6 C      2, 3, 5-14
    3    8 O      4
    4   17 Cl     15
    5    1 H      16-29

          :  Hamiltonian                  GFN2-xTB          :
 * total energy  :   -44.3238136 Eh     change       -0.1117968E-08 Eh
 * total energy  :   -44.3314461 Eh     change       -0.7632424E-02 Eh
 * total energy  :   -44.3375756 Eh     change       -0.6129536E-02 Eh
 * total energy  :   -44.3433855 Eh     change       -0.5809885E-02 Eh
 * total energy  :   -44.3498863 Eh     change       -0.6500796E-02 Eh
 * total energy  :   -44.3526421 Eh     change       -0.2755856E-02 Eh
 * total energy  :   -44.3543363 Eh     change       -0.1694222E-02 Eh
 * total energy  :   -44.3556151 Eh     change       -0.1278770E-02 Eh
 * total energy  :   -44.3562687 Eh     change       -0.6535570E-03 Eh
 * total energy  :   -44.3567915 Eh     change       -0.5228373E-03 Eh
 * total energy  :   -44.3610892 Eh     change       -0.4440410E-04 Eh
 * total energy  :   -44.3611353 Eh     change       -0.4619775E-04 Eh
 * total energy  :   -44.3611761 Eh     change       -0.4077304E-04 Eh
 * total energy  :   -44.3612098 Eh     change       -0.3372714E-04 Eh
 * total energy  :   -44.3612263 Eh     change       -0.1644253E-04 Eh
 * total energy  :   -44.3612427 Eh     change       -0.1645564E-04 Eh
 * total energy  :   -44.3612525 Eh     change       -0.9781218E-05 Eh
 * total energy  :   -44.3612581 Eh     change       -0.5545992E-05 Eh
 * total energy  :   -44.3612627 Eh     change       -0.4582035E-05 Eh
   *** GEOMETRY OPTIMIZATION CONVERGED AFTER 42 ITERATIONS ***

 final structure:
================
29
 xtb: 6.5.1 (fef0646)
N            2.97658153805689       -0.59251186922887        0.54131291216371
C            2.21683842068423        0.06953531903926       -0.51622075353393
C            2.93244630763255        1.35944695623354       -0.90486370150817
O            4.15353313616030        0.98362793157308       -1.50958809661415
C            5.01764617669169        1.96079319683689       -1.91045746361477
C            4.79486310877890        3.30791149309966       -1.77116618002215
C            5.75068259533454        4.23346036687833       -2.21728753792853
C            6.91459933703226        3.82095261567357       -2.79692432392835
C            7.17794726056869        2.44418367967084       -2.95901944891097
C            8.36801908241086        1.97676822441217       -3.55407169300966
C            8.60228406702566        0.63838629423457       -3.70243146399402
C            7.65451730643875       -0.29684796082316       -3.26306956155803
C            6.49018865763792        0.12318367703454       -2.68195188924196
C            6.22284158296604        1.49604064427990       -2.51398712574949
Cl           2.93495966753513        1.17758721013225        2.87834663299894
H            2.58123908899304       -1.49670113623887        0.77217037132172
H            2.96821897954906        0.32849018311486        1.80043172815585
H            3.93808261029510       -0.71562455240363        0.23984028558803
H            1.22353697327849        0.30757229064264       -0.13135634575996
H            2.11262707353109       -0.55830119293984       -1.41107870155520
H            3.11488065770663        1.95759102752709       -0.00460540717114
H            2.31634250738275        1.93307440766608       -1.60865948483355
H            3.89029421306614        3.67984483040733       -1.31738307205928
H            5.54577600814227        5.28630791347827       -2.09116366760476
H            7.64746295848951        4.53675061026259       -3.13845903568710
H            9.09401855539866        2.70253124430414       -3.89213755584068
H            9.51780297107554        0.29171655796884       -4.15926541913359
H            7.85152717480278       -1.35156603225045       -3.38844459083480
H            5.75309198331153       -0.58944393057195       -2.34530941014677

          :  Hamiltonian                  GFN2-xTB          :
         :: total energy             -44.361262657846 Eh    ::
         :: gradient norm              0.000700848720 Eh/a0 ::
         :: HOMO-LUMO gap              3.105243508515 eV    ::
         :: SCC energy               -44.994713022199 Eh    ::
         :: -> dispersion             -0.027339198920 Eh    ::
         :: repulsion energy           0.633328521098 Eh    ::

    * Orbital Energies and Occupations

         #    Occupation            Energy/Eh            Energy/eV
      -------------------------------------------------------------
         1        2.0000           -1.0202490             -27.7624
       ...           ...                  ...                  ...
        28        2.0000           -0.4695273             -12.7765
        29        2.0000           -0.4662553             -12.6875
        30        2.0000           -0.4570686             -12.4375
        31        2.0000           -0.4475969             -12.1797
        32        2.0000           -0.4458674             -12.1327
        33        2.0000           -0.4199617             -11.4277
        34        2.0000           -0.4165254             -11.3342
        35        2.0000           -0.4130214             -11.2389
        36        2.0000           -0.4045181             -11.0075
        37        2.0000           -0.4013428             -10.9211
        38        2.0000           -0.3974867             -10.8162
        39        2.0000           -0.3972439             -10.8096
        40        2.0000           -0.3691323             -10.0446 (HOMO)
        41                         -0.2550167              -6.9394 (LUMO)
        42                         -0.2290926              -6.2339
        43                         -0.1858658              -5.0577
        44                         -0.1429318              -3.8894
        45                         -0.0601669              -1.6372
        46                         -0.0554198              -1.5080
        47                         -0.0007559              -0.0206
        48                          0.0242862               0.6609
        49                          0.0633963               1.7251
        50                          0.0641029               1.7443
        51                          0.0694915               1.8910
       ...                                ...                  ...
        79                          0.6971299              18.9699
      -------------------------------------------------------------
                  HL-Gap            0.1141156 Eh            3.1052 eV

     #   Z          covCN         q      C6AA      α(0)
     1   7 N        2.696    -0.303    27.799     7.831
     2   6 C        3.731     0.002    20.631     6.484
     3   6 C        3.694     0.068    19.601     6.334
     4   8 O        1.705    -0.276    18.583     5.820
     5   6 C        2.861     0.135    25.038     8.202
     6   6 C        2.913    -0.072    29.798     8.951
     7   6 C        2.917    -0.031    28.773     8.796
     8   6 C        2.916    -0.048    29.197     8.861
     9   6 C        2.987     0.013    27.722     8.637
    10   6 C        2.920    -0.035    28.865     8.810
    11   6 C        2.916    -0.030    28.739     8.791
    12   6 C        2.917    -0.032    28.803     8.801
    13   6 C        2.918    -0.030    28.747     8.792
    14   6 C        2.987    -0.005    28.134     8.701
    15  17 Cl       0.837    -0.485   115.136    16.415
    16   1 H        0.860     0.169     1.277     1.770
    17   1 H        0.901     0.332     0.622     1.234
    18   1 H        0.860     0.185     1.189     1.708
    19   1 H        0.924     0.061     2.192     2.315
    20   1 H        0.923     0.045     2.378     2.412
    21   1 H        0.924     0.062     2.171     2.304
    22   1 H        0.924     0.041     2.440     2.443
    23   1 H        0.926     0.033     2.541     2.493
    24   1 H        0.926     0.034     2.525     2.485
    25   1 H        0.926     0.034     2.534     2.489
    26   1 H        0.926     0.033     2.540     2.492
    27   1 H        0.926     0.031     2.572     2.508
    28   1 H        0.926     0.030     2.592     2.517
    29   1 H        0.926     0.038     2.479     2.462

Wiberg/Mayer (AO) data.
largest (>0.10) Wiberg bond orders for each atom

     #   Z sym  total        # sym  WBO       # sym  WBO       # sym  WBO
 ---------------------------------------------------------------------------
     1   7 N    3.239 --     2 C    1.012    16 H    0.958    18 H    0.951
                            17 H    0.206
     2   6 C    3.979 --     1 N    1.012     3 C    1.002    19 H    0.973
                            20 H    0.970
     3   6 C    3.949 --     2 C    1.002     4 O    0.972    22 H    0.966
                            21 H    0.962
     4   8 O    2.228 --     5 C    1.053     3 C    0.972
     5   6 C    3.931 --     6 C    1.480    14 C    1.208     4 O    1.053
                             8 C    0.101
     6   6 C    3.987 --     5 C    1.480     7 C    1.321    23 H    0.966
     7   6 C    3.992 --     8 C    1.559     6 C    1.321    24 H    0.971
     8   6 C    3.991 --     7 C    1.559     9 C    1.268    25 H    0.968
                             5 C    0.101
     9   6 C    3.990 --    10 C    1.283     8 C    1.268    14 C    1.262
    10   6 C    3.991 --    11 C    1.553     9 C    1.283    26 H    0.969
                            13 C    0.118
    11   6 C    3.992 --    10 C    1.553    12 C    1.327    27 H    0.971
    12   6 C    3.992 --    13 C    1.547    11 C    1.327    28 H    0.971
    13   6 C    3.992 --    12 C    1.547    14 C    1.295    29 H    0.968
                            10 C    0.118
    14   6 C    3.988 --    13 C    1.295     9 C    1.262     5 C    1.208
    15  17 Cl   0.768 --    17 H    0.679
    16   1 H    0.971 --     1 N    0.958
    17   1 H    0.890 --    15 Cl   0.679     1 N    0.206
    18   1 H    0.966 --     1 N    0.951
    19   1 H    0.996 --     2 C    0.973
    20   1 H    0.998 --     2 C    0.970
    21   1 H    0.996 --     3 C    0.962
    22   1 H    0.998 --     3 C    0.966
    23   1 H    0.998 --     6 C    0.966
    24   1 H    0.998 --     7 C    0.971
    25   1 H    0.998 --     8 C    0.968
    26   1 H    0.998 --    10 C    0.969
    27   1 H    0.998 --    11 C    0.971
    28   1 H    0.999 --    12 C    0.971
    29   1 H    0.998 --    13 C    0.968
 ---------------------------------------------------------------------------

molecular dipole:
                 x           y           z       tot (Debye)
 q only:       -0.258      -0.954      -1.464
   full:       -0.331      -0.849      -1.277       3.988

           -------------------------------------------------
          | TOTAL ENERGY              -44.361262657846 Eh   |
          | GRADIENT NORM               0.000700848720 Eh/α |
          | HOMO-LUMO GAP               3.105243508515 eV   |
           -------------------------------------------------

 * finished run on 2023/01/23 at 14:27:01.792
