   * xtb version 6.5.1 (fef0646) compiled by 'conda@b96dff2e9fd6' on 2023-01-04
          program call               : xtb init.xyz --opt -c 0 -u 0 -P 16

   ID    Z sym.   atoms
    1    7 N      1
    2    6 C      2-10
    3   17 Cl     11
    4    1 H      12-23

          :  Hamiltonian                  GFN2-xTB          :
 * total energy  :   -32.7942960 Eh     change       -0.2138307E-09 Eh
 * total energy  :   -32.8020453 Eh     change       -0.7749273E-02 Eh
 * total energy  :   -32.8064359 Eh     change       -0.4390621E-02 Eh
 * total energy  :   -32.8091092 Eh     change       -0.2673347E-02 Eh
 * total energy  :   -32.8120541 Eh     change       -0.2944827E-02 Eh
 * total energy  :   -32.8138593 Eh     change       -0.1805198E-02 Eh
 * total energy  :   -32.8144743 Eh     change       -0.6150659E-03 Eh
 * total energy  :   -32.8147951 Eh     change       -0.3207761E-03 Eh
 * total energy  :   -32.8148634 Eh     change       -0.6824383E-04 Eh
 * total energy  :   -32.8148853 Eh     change       -0.2196194E-04 Eh
 * total energy  :   -32.8149749 Eh     change       -0.2843017E-04 Eh
 * total energy  :   -32.8149961 Eh     change       -0.2120582E-04 Eh
 * total energy  :   -32.8150082 Eh     change       -0.1203064E-04 Eh
 * total energy  :   -32.8150169 Eh     change       -0.8726964E-05 Eh
 * total energy  :   -32.8150278 Eh     change       -0.1092417E-04 Eh
 * total energy  :   -32.8150398 Eh     change       -0.1195189E-04 Eh
 * total energy  :   -32.8150475 Eh     change       -0.7783996E-05 Eh
 * total energy  :   -32.8150546 Eh     change       -0.7092088E-05 Eh
 * total energy  :   -32.8150575 Eh     change       -0.2847756E-05 Eh
   *** GEOMETRY OPTIMIZATION CONVERGED AFTER 22 ITERATIONS ***

 final structure:
================
23
 xtb: 6.5.1 (fef0646)
N            1.24803398550409        0.57264199608014       -0.05578538300502
C            2.63536671337031        0.12551201469249        0.12521148060178
C            3.13944509069031       -0.47927014210927       -1.15692611356010
C            3.89780160112749        0.27459777911645       -2.04395280701937
C            4.33094792126348       -0.26220050809101       -3.23977231235006
C            4.01352286447046       -1.57491096965329       -3.58892015452462
C            4.44144360805148       -2.19177541117145       -4.83861100143279
C            5.23833672577307       -1.65824574188216       -5.75655535303982
C            3.24678014825051       -2.32308383546052       -2.69309896368994
C            2.81682190872005       -1.78697188617300       -1.49650852751165
Cl          -0.63553111957031       -1.64684868995784       -0.41538760793971
H            0.91131862430373        1.05827939169380        0.76883641788869
H            0.27729602298380       -0.63412915537421       -0.27007655752609
H            1.17582197626240        1.19320564085534       -0.85576149518203
H            2.63273668965153       -0.62331490531113        0.92110947507736
H            3.29327305003965        0.95294446812909        0.42637314056995
H            4.15634826697759        1.29483620967196       -1.79381555503456
H            4.91578890988412        0.34856715901999       -3.90965154942851
H            4.05347110925166       -3.19026848366732       -4.99980809902018
H            5.66436904269653       -0.67431568368318       -5.66031950939823
H            5.49694982638976       -2.19537941808366       -6.65289456724214
H            2.98668790985536       -3.34160180215715       -2.94316484068356
H            2.21965912405296       -2.37970802648198       -0.82158011653884

          :  Hamiltonian                  GFN2-xTB          :
         :: total energy             -32.815057486201 Eh    ::
         :: gradient norm              0.000507667470 Eh/a0 ::
         :: HOMO-LUMO gap              3.559312712431 eV    ::
         :: SCC energy               -33.315641256175 Eh    ::
         :: -> dispersion             -0.019733291795 Eh    ::
         :: repulsion energy           0.500554824388 Eh    ::

    * Orbital Energies and Occupations

         #    Occupation            Energy/Eh            Energy/eV
      -------------------------------------------------------------
         1        2.0000           -1.0165771             -27.6625
       ...           ...                  ...                  ...
        18        2.0000           -0.4837107             -13.1624
        19        2.0000           -0.4803348             -13.0706
        20        2.0000           -0.4783744             -13.0172
        21        2.0000           -0.4659739             -12.6798
        22        2.0000           -0.4456327             -12.1263
        23        2.0000           -0.4373640             -11.9013
        24        2.0000           -0.4284140             -11.6577
        25        2.0000           -0.4217701             -11.4769
        26        2.0000           -0.4091191             -11.1327
        27        2.0000           -0.3997427             -10.8776
        28        2.0000           -0.3936097             -10.7107
        29        2.0000           -0.3933956             -10.7048
        30        2.0000           -0.3873565             -10.5405 (HOMO)
        31                         -0.2565541              -6.9812 (LUMO)
        32                         -0.2261899              -6.1549
        33                         -0.1791264              -4.8743
        34                         -0.0859513              -2.3389
        35                         -0.0531714              -1.4469
        36                          0.0331322               0.9016
        37                          0.0672858               1.8309
        38                          0.0677218               1.8428
        39                          0.0730595               1.9880
        40                          0.0734718               1.9993
        41                          0.0853333               2.3220
       ...                                ...                  ...
        61                          0.6818695              18.5546
      -------------------------------------------------------------
                  HL-Gap            0.1308023 Eh            3.5593 eV

     #   Z          covCN         q      C6AA      α(0)
     1   7 N        2.692    -0.304    27.825     7.834
     2   6 C        3.737     0.004    20.594     6.476
     3   6 C        2.972     0.001    27.994     8.679
     4   6 C        2.922    -0.039    28.969     8.826
     5   6 C        2.923    -0.034    28.846     8.808
     6   6 C        2.971     0.015    27.669     8.628
     7   6 C        2.896    -0.030    28.742     8.790
     8   6 C        2.837    -0.085    30.119     8.994
     9   6 C        2.928    -0.031    28.779     8.798
    10   6 C        2.921    -0.035    28.860     8.810
    11  17 Cl       0.838    -0.483   115.058    16.409
    12   1 H        0.860     0.166     1.295     1.782
    13   1 H        0.898     0.331     0.625     1.237
    14   1 H        0.860     0.167     1.292     1.781
    15   1 H        0.924     0.056     2.250     2.346
    16   1 H        0.923     0.028     2.619     2.531
    17   1 H        0.925     0.027     2.629     2.535
    18   1 H        0.926     0.037     2.486     2.465
    19   1 H        0.925     0.037     2.491     2.468
    20   1 H        0.926     0.039     2.457     2.451
    21   1 H        0.926     0.039     2.468     2.456
    22   1 H        0.926     0.039     2.462     2.454
    23   1 H        0.926     0.054     2.269     2.355

Wiberg/Mayer (AO) data.
largest (>0.10) Wiberg bond orders for each atom

     #   Z sym  total        # sym  WBO       # sym  WBO       # sym  WBO
 ---------------------------------------------------------------------------
     1   7 N    3.234 --     2 C    0.993    14 H    0.959    12 H    0.958
                            13 H    0.204
     2   6 C    3.973 --     3 C    1.005     1 N    0.993    16 H    0.971
                            15 H    0.970
     3   6 C    3.988 --     4 C    1.407    10 C    1.404     2 C    1.005
     4   6 C    3.992 --     5 C    1.461     3 C    1.407    17 H    0.969
                             9 C    0.102
     5   6 C    3.992 --     4 C    1.461     6 C    1.374    18 H    0.966
                            10 C    0.105
     6   6 C    3.989 --     5 C    1.374     9 C    1.372     7 C    1.092
     7   6 C    3.991 --     8 C    1.901     6 C    1.092    19 H    0.964
     8   6 C    3.990 --     7 C    1.901    21 H    0.978    20 H    0.973
     9   6 C    3.991 --    10 C    1.463     6 C    1.372    22 H    0.968
                             4 C    0.102
    10   6 C    3.990 --     9 C    1.463     3 C    1.404    23 H    0.966
                             5 C    0.105
    11  17 Cl   0.770 --    13 H    0.682
    12   1 H    0.971 --     1 N    0.958
    13   1 H    0.890 --    11 Cl   0.682     1 N    0.204
    14   1 H    0.972 --     1 N    0.959
    15   1 H    0.996 --     2 C    0.970
    16   1 H    0.999 --     2 C    0.971
    17   1 H    0.999 --     4 C    0.969
    18   1 H    0.998 --     5 C    0.966
    19   1 H    0.998 --     7 C    0.964
    20   1 H    0.998 --     8 C    0.973
    21   1 H    0.998 --     8 C    0.978
    22   1 H    0.998 --     9 C    0.968
    23   1 H    0.997 --    10 C    0.966
 ---------------------------------------------------------------------------

molecular dipole:
                 x           y           z       tot (Debye)
 q only:        1.365       1.233       0.118
   full:        1.168       1.312       0.129       4.477

           -------------------------------------------------
          | TOTAL ENERGY              -32.815057486201 Eh   |
          | GRADIENT NORM               0.000507667470 Eh/α |
          | HOMO-LUMO GAP               3.559312712431 eV   |
           -------------------------------------------------

 * finished run on 2023/01/23 at 13:44:48.643
