   * xtb version 6.5.1 (fef0646) compiled by 'conda@b96dff2e9fd6' on 2023-01-04
          program call               : xtb init.xyz --opt -c 0 -u 0 -P 16 --alpb water

   ID    Z sym.   atoms
    1    7 N      1
    2    6 C      2-5, 7, 9, 11, 13
    3    9 F      6, 8, 10, 12, 14
    4   17 Cl     15
    5    1 H      16-22

      * Solvation model:               ALPB
        Solvent                        water
        Solvent mass                       1.8000E+01 g/mol
          :  Hamiltonian                  GFN2-xTB          :
 * total energy  :   -51.8351886 Eh     change       -0.8787282E-10 Eh
 * total energy  :   -51.8392110 Eh     change       -0.4022463E-02 Eh
 * total energy  :   -51.8401234 Eh     change       -0.9123789E-03 Eh
 * total energy  :   -51.8402466 Eh     change       -0.1232279E-03 Eh
 * total energy  :   -51.8402980 Eh     change       -0.5134851E-04 Eh
 * total energy  :   -51.8403532 Eh     change       -0.5523083E-04 Eh
 * total energy  :   -51.8405275 Eh     change       -0.1742877E-03 Eh
 * total energy  :   -51.8407661 Eh     change       -0.2385394E-03 Eh
 * total energy  :   -51.8412767 Eh     change       -0.5106372E-03 Eh
 * total energy  :   -51.8418158 Eh     change       -0.5391146E-03 Eh
 * total energy  :   -51.8464792 Eh     change       -0.3820356E-04 Eh
 * total energy  :   -51.8465014 Eh     change       -0.2214930E-04 Eh
 * total energy  :   -51.8465264 Eh     change       -0.2498743E-04 Eh
 * total energy  :   -51.8465601 Eh     change       -0.3371643E-04 Eh
 * total energy  :   -51.8465950 Eh     change       -0.3495607E-04 Eh
 * total energy  :   -51.8466285 Eh     change       -0.3349034E-04 Eh
 * total energy  :   -51.8466502 Eh     change       -0.2168500E-04 Eh
 * total energy  :   -51.8466612 Eh     change       -0.1096164E-04 Eh
 * total energy  :   -51.8466658 Eh     change       -0.4579086E-05 Eh
   *** GEOMETRY OPTIMIZATION CONVERGED AFTER 31 ITERATIONS ***

 final structure:
================
22
 xtb: 6.5.1 (fef0646)
N            1.16968171544981       -0.31495237722873        0.02933046131203
C            2.64230007720455       -0.30501571467060        0.02304986743851
C            3.12315770558208        0.87561281791281        0.87525141373564
C            4.59796323683426        1.10711932352108        0.76421625128857
C            5.17303415137734        1.60234876451349       -0.40503746349579
F            4.39357518235901        1.85430304415502       -1.46386201350769
C            6.53586962757737        1.84838940166716       -0.51432265688328
F            7.04834835352684        2.33232645824727       -1.65546556293634
C            7.37266229570412        1.59522691364242        0.56647789329792
F            8.68782555365238        1.83229741721274        0.47336345919022
C            6.83092430261617        1.09598891459791        1.74390540537434
F            7.62580930920333        0.84580437017804        2.79418687100255
C            5.46363688573713        0.85836713239840        1.82624375967343
F            4.96926811626429        0.37535873993495        2.97460877661344
Cl           0.35159497794550        2.51611229979317       -0.74095102854292
H            0.79545493767481       -1.02166164925044       -0.60756948862795
H            0.81885615837177        0.62965366239820       -0.28341804931522
H            0.80487663378513       -0.47061559596439        0.97234424321170
H            2.98430124799626       -0.17533036311556       -1.00304846891122
H            3.02531241488327       -1.24511597115157        0.42141622654770
H            2.86745989770265        0.71460058685197        1.92102400013988
H            2.59826721855125        1.76521182435759        0.51527610339367

          :  Hamiltonian                  GFN2-xTB          :
         :: total energy             -51.846665764821 Eh    ::
         :: gradient norm              0.000225330104 Eh/a0 ::
         :: HOMO-LUMO gap              2.962579638500 eV    ::
         :: SCC energy               -52.254586832379 Eh    ::
         :: -> dispersion             -0.018683558780 Eh    ::
         :: -> Gsolv                  -0.082373243677 Eh    ::
         :: repulsion energy           0.407876314870 Eh    ::

    * Orbital Energies and Occupations

         #    Occupation            Energy/Eh            Energy/eV
      -------------------------------------------------------------
         1        2.0000           -1.0075186             -27.4160
       ...           ...                  ...                  ...
        31        2.0000           -0.5272758             -14.3479
        32        2.0000           -0.5199056             -14.1474
        33        2.0000           -0.5064020             -13.7799
        34        2.0000           -0.5005324             -13.6202
        35        2.0000           -0.4939466             -13.4410
        36        2.0000           -0.4895347             -13.3209
        37        2.0000           -0.4833011             -13.1513
        38        2.0000           -0.4536972             -12.3457
        39        2.0000           -0.4509313             -12.2705
        40        2.0000           -0.4442650             -12.0891
        41        2.0000           -0.4027187             -10.9585
        42        2.0000           -0.3999611             -10.8835
        43        2.0000           -0.3997046             -10.8765 (HOMO)
        44                         -0.2908318              -7.9139 (LUMO)
        45                         -0.2886827              -7.8555
        46                         -0.1636587              -4.4534
        47                         -0.0492511              -1.3402
        48                         -0.0321088              -0.8737
        49                         -0.0124857              -0.3398
        50                          0.0157321               0.4281
        51                          0.0478521               1.3021
        52                          0.0742746               2.0211
        53                          0.0789834               2.1492
        54                          0.0865510               2.3552
       ...                                ...                  ...
        72                          0.5824532              15.8494
      -------------------------------------------------------------
                  HL-Gap            0.1088728 Eh            2.9626 eV

     #   Z          covCN         q      C6AA      α(0)
     1   7 N        3.485    -0.173    24.741     7.388
     2   6 C        3.732    -0.025    21.113     6.559
     3   6 C        3.809    -0.084    22.093     6.691
     4   6 C        2.963     0.006    27.895     8.663
     5   6 C        2.788     0.157    24.585     8.122
     6   9 F        0.787    -0.182    11.050     3.927
     7   6 C        2.775     0.147    24.796     8.156
     8   9 F        0.786    -0.191    11.143     3.943
     9   6 C        2.779     0.148    24.762     8.150
    10   9 F        0.786    -0.188    11.113     3.938
    11   6 C        2.774     0.147    24.784     8.154
    12   9 F        0.786    -0.187    11.103     3.936
    13   6 C        2.789     0.156    24.604     8.125
    14   9 F        0.787    -0.180    11.028     3.923
    15  17 Cl       0.055    -0.941   124.646    16.992
    16   1 H        0.859     0.313     0.676     1.288
    17   1 H        0.911     0.304     0.698     1.307
    18   1 H        0.859     0.306     0.696     1.307
    19   1 H        0.925     0.111     1.685     2.030
    20   1 H        0.924     0.122     1.599     1.977
    21   1 H        0.925     0.112     1.680     2.027
    22   1 H        0.924     0.122     1.595     1.975

Wiberg/Mayer (AO) data.
largest (>0.10) Wiberg bond orders for each atom

     #   Z sym  total        # sym  WBO       # sym  WBO       # sym  WBO
 ---------------------------------------------------------------------------
     1   7 N    3.637 --     2 C    0.982    18 H    0.892    16 H    0.888
                            17 H    0.823
     2   6 C    3.932 --     3 C    0.983     1 N    0.982    19 H    0.966
                            20 H    0.964
     3   6 C    3.969 --     4 C    1.020     2 C    0.983    21 H    0.963
                            22 H    0.936
     4   6 C    3.975 --    13 C    1.357     5 C    1.347     3 C    1.020
     5   6 C    3.895 --     7 C    1.351     4 C    1.347     6 F    0.991
     6   9 F    1.134 --     5 C    0.991
     7   6 C    3.892 --     5 C    1.351     9 C    1.340     8 F    0.982
     8   9 F    1.120 --     7 C    0.982
     9   6 C    3.893 --    11 C    1.345     7 C    1.340    10 F    0.985
    10   9 F    1.124 --     9 C    0.985
    11   6 C    3.894 --     9 C    1.345    13 C    1.344    12 F    0.985
    12   9 F    1.123 --    11 C    0.985
    13   6 C    3.898 --     4 C    1.357    11 C    1.344    14 F    0.990
    14   9 F    1.131 --    13 C    0.990
    15  17 Cl   0.113
    16   1 H    0.902 --     1 N    0.888
    17   1 H    0.908 --     1 N    0.823
    18   1 H    0.906 --     1 N    0.892
    19   1 H    0.988 --     2 C    0.966
    20   1 H    0.985 --     2 C    0.964
    21   1 H    0.987 --     3 C    0.963
    22   1 H    0.984 --     3 C    0.936
 ---------------------------------------------------------------------------

molecular dipole:
                 x           y           z       tot (Debye)
 q only:       -0.237      -5.327       1.484
   full:       -0.411      -4.545       1.198      11.992

           -------------------------------------------------
          | TOTAL ENERGY              -51.846665764821 Eh   |
          | GRADIENT NORM               0.000225330104 Eh/α |
          | HOMO-LUMO GAP               2.962579638500 eV   |
           -------------------------------------------------

 * finished run on 2023/01/24 at 14:56:06.625
