   * xtb version 6.5.1 (fef0646) compiled by 'conda@b96dff2e9fd6' on 2023-01-04
          program call               : xtb init.xyz --opt -c 0 -u 0 -P 16 --alpb water

   ID    Z sym.   atoms
    1    7 N      1
    2    6 C      2-7, 9-11
    3    8 O      8
    4   17 Cl     12
    5    1 H      13-26

      * Solvation model:               ALPB
        Solvent                        water
        Solvent mass                       1.8000E+01 g/mol
          :  Hamiltonian                  GFN2-xTB          :
 * total energy  :   -37.9709848 Eh     change       -0.3983942E-09 Eh
 * total energy  :   -37.9758214 Eh     change       -0.4836626E-02 Eh
 * total energy  :   -37.9772562 Eh     change       -0.1434798E-02 Eh
 * total energy  :   -37.9780994 Eh     change       -0.8431996E-03 Eh
 * total energy  :   -37.9789853 Eh     change       -0.8859284E-03 Eh
 * total energy  :   -37.9798567 Eh     change       -0.8713552E-03 Eh
 * total energy  :   -37.9803240 Eh     change       -0.4673483E-03 Eh
 * total energy  :   -37.9804945 Eh     change       -0.1704618E-03 Eh
 * total energy  :   -37.9805723 Eh     change       -0.7784582E-04 Eh
 * total energy  :   -37.9806506 Eh     change       -0.7826505E-04 Eh
 * total energy  :   -37.9818273 Eh     change        0.1285145E-04 Eh
 * total energy  :   -37.9818828 Eh     change       -0.5550240E-04 Eh
 * total energy  :   -37.9818853 Eh     change       -0.2505934E-05 Eh
 * total energy  :   -37.9818926 Eh     change       -0.7215623E-05 Eh
 * total energy  :   -37.9818971 Eh     change       -0.4518822E-05 Eh
 * total energy  :   -37.9819019 Eh     change       -0.4810847E-05 Eh
 * total energy  :   -37.9819134 Eh     change       -0.1148271E-04 Eh
 * total energy  :   -37.9819205 Eh     change       -0.7181581E-05 Eh
 * total energy  :   -37.9819228 Eh     change       -0.2226883E-05 Eh
   *** GEOMETRY OPTIMIZATION CONVERGED AFTER 27 ITERATIONS ***

 final structure:
================
26
 xtb: 6.5.1 (fef0646)
N            2.79694722265953        0.89563391491917        1.66769225696797
C            2.49489696053621        0.28445178764604        0.35814328577251
C            2.95644803026741       -1.17207223000013        0.35824337618266
C            4.45122701549795       -1.27407385724975        0.49027219032677
C            5.04130025300885       -1.42420006379916        1.73714716467808
C            6.41799890938671       -1.50205677245921        1.87843615852456
C            7.23188543371207       -1.42345321107333        0.75505786211563
O            8.59848224667633       -1.49014380884993        0.76801169721813
C            9.25517046200840       -1.67770089923670        2.00458721658630
C            6.64627790943527       -1.26399024787132       -0.50176828562793
C            5.27556679197875       -1.19174630710070       -0.62786239974003
Cl           1.68642217017931       -0.78773660825631        3.97571353208254
H            2.45322874324546        1.85567592686211        1.73083806198466
H            3.80575162453714        0.87188573352901        1.84055044123565
H            2.35455008741173        0.33442513816597        2.44000275553648
H            3.00714281610004        0.84100519525998       -0.42770167445704
H            1.41921210036402        0.32213189686325        0.19384441772431
H            2.63461818684034       -1.64649182352512       -0.56762311441102
H            2.47855789229794       -1.68251595181449        1.19531711472755
H            4.41689699436709       -1.49817525593578        2.61695422232985
H            6.83801523977966       -1.62839716879293        2.86365162421267
H           10.31565677205095       -1.71383241332590        1.76498256437143
H            8.95372898955496       -2.61780158170637        2.47514186193934
H            9.06173358659859       -0.84552801486643        2.68712682112008
H            7.29424368842938       -1.20816241620088       -1.36217813393974
H            4.83942987307373       -1.07904096118164       -1.60867101746223

          :  Hamiltonian                  GFN2-xTB          :
         :: total energy             -37.981922772815 Eh    ::
         :: gradient norm              0.000194403209 Eh/a0 ::
         :: HOMO-LUMO gap              4.188634622473 eV    ::
         :: SCC energy               -38.480227987536 Eh    ::
         :: -> dispersion             -0.021403288696 Eh    ::
         :: -> Gsolv                  -0.071832325403 Eh    ::
         :: repulsion energy           0.498224208828 Eh    ::

    * Orbital Energies and Occupations

         #    Occupation            Energy/Eh            Energy/eV
      -------------------------------------------------------------
         1        2.0000           -1.0060714             -27.3766
       ...           ...                  ...                  ...
        22        2.0000           -0.4736089             -12.8876
        23        2.0000           -0.4725882             -12.8598
        24        2.0000           -0.4646674             -12.6442
        25        2.0000           -0.4582730             -12.4702
        26        2.0000           -0.4425635             -12.0428
        27        2.0000           -0.4380049             -11.9187
        28        2.0000           -0.4269398             -11.6176
        29        2.0000           -0.4139966             -11.2654
        30        2.0000           -0.4028586             -10.9623
        31        2.0000           -0.4015335             -10.9263
        32        2.0000           -0.4002231             -10.8906
        33        2.0000           -0.3995422             -10.8721
        34        2.0000           -0.3740699             -10.1790 (HOMO)
        35                         -0.2201404              -5.9903 (LUMO)
        36                         -0.2113120              -5.7501
        37                         -0.0884220              -2.4061
        38                         -0.0213216              -0.5802
        39                          0.0292485               0.7959
        40                          0.0828099               2.2534
        41                          0.0933587               2.5404
        42                          0.1081595               2.9432
        43                          0.1158755               3.1531
        44                          0.1168852               3.1806
        45                          0.1181140               3.2140
       ...                                ...                  ...
        67                          0.6677881              18.1714
      -------------------------------------------------------------
                  HL-Gap            0.1539295 Eh            4.1886 eV

     #   Z          covCN         q      C6AA      α(0)
     1   7 N        3.484    -0.164    24.546     7.358
     2   6 C        3.733    -0.026    21.121     6.559
     3   6 C        3.809    -0.088    22.163     6.701
     4   6 C        2.969     0.002    27.971     8.675
     5   6 C        2.925    -0.047    29.172     8.857
     6   6 C        2.916    -0.071    29.762     8.946
     7   6 C        2.864     0.136    25.023     8.200
     8   8 O        1.704    -0.310    19.170     5.911
     9   6 C        3.641     0.027    20.475     6.506
    10   6 C        2.919    -0.062    29.543     8.913
    11   6 C        2.924    -0.045    29.109     8.848
    12  17 Cl       0.043    -0.948   124.912    17.010
    13   1 H        0.860     0.305     0.699     1.309
    14   1 H        0.859     0.282     0.768     1.373
    15   1 H        0.900     0.296     0.722     1.329
    16   1 H        0.924     0.107     1.725     2.054
    17   1 H        0.925     0.106     1.735     2.060
    18   1 H        0.925     0.076     2.023     2.224
    19   1 H        0.924     0.069     2.094     2.263
    20   1 H        0.925     0.047     2.361     2.403
    21   1 H        0.926     0.033     2.537     2.491
    22   1 H        0.925     0.074     2.039     2.233
    23   1 H        0.924     0.046     2.364     2.405
    24   1 H        0.924     0.051     2.312     2.378
    25   1 H        0.926     0.047     2.360     2.403
    26   1 H        0.926     0.056     2.245     2.343

Wiberg/Mayer (AO) data.
largest (>0.10) Wiberg bond orders for each atom

     #   Z sym  total        # sym  WBO       # sym  WBO       # sym  WBO
 ---------------------------------------------------------------------------
     1   7 N    3.647 --     2 C    0.968    14 H    0.899    13 H    0.893
                            15 H    0.832
     2   6 C    3.929 --     3 C    0.996     1 N    0.968    17 H    0.967
                            16 H    0.967
     3   6 C    3.991 --     4 C    1.011     2 C    0.996    19 H    0.968
                            18 H    0.964
     4   6 C    3.989 --     5 C    1.419    11 C    1.391     3 C    1.011
     5   6 C    3.990 --     6 C    1.434     4 C    1.419    20 H    0.967
                            10 C    0.109
     6   6 C    3.988 --     5 C    1.434     7 C    1.382    21 H    0.966
                            11 C    0.103
     7   6 C    3.928 --     6 C    1.382    10 C    1.349     8 O    1.045
     8   8 O    2.197 --     7 C    1.045     9 C    0.977
     9   6 C    3.937 --    22 H    0.978    23 H    0.977    24 H    0.977
                             8 O    0.977
    10   6 C    3.987 --    11 C    1.473     7 C    1.349    25 H    0.968
                             5 C    0.109
    11   6 C    3.989 --    10 C    1.473     4 C    1.391    26 H    0.967
                             6 C    0.103
    12  17 Cl   0.101
    13   1 H    0.907 --     1 N    0.893
    14   1 H    0.920 --     1 N    0.899
    15   1 H    0.912 --     1 N    0.832
    16   1 H    0.989 --     2 C    0.967
    17   1 H    0.988 --     2 C    0.967
    18   1 H    0.994 --     3 C    0.964
    19   1 H    0.995 --     3 C    0.968
    20   1 H    0.998 --     5 C    0.967
    21   1 H    0.999 --     6 C    0.966
    22   1 H    0.994 --     9 C    0.978
    23   1 H    0.998 --     9 C    0.977
    24   1 H    0.997 --     9 C    0.977
    25   1 H    0.998 --    10 C    0.968
    26   1 H    0.996 --    11 C    0.967
 ---------------------------------------------------------------------------

molecular dipole:
                 x           y           z       tot (Debye)
 q only:        1.713       2.798      -3.948
   full:        1.601       2.441      -3.080      10.786

           -------------------------------------------------
          | TOTAL ENERGY              -37.981922772815 Eh   |
          | GRADIENT NORM               0.000194403209 Eh/α |
          | HOMO-LUMO GAP               4.188634622473 eV   |
           -------------------------------------------------

 * finished run on 2023/01/24 at 14:57:41.917
