   * xtb version 6.5.1 (fef0646) compiled by 'conda@b96dff2e9fd6' on 2023-01-04
          program call               : xtb init.xyz --opt -c 1 -u 0 -P 16

   ID    Z sym.   atoms
    1    7 N      1
    2    6 C      2, 3, 5-24
    3    8 O      4
    4    1 H      25-42

          :  Hamiltonian                  GFN2-xTB          :
 * total energy  :   -62.8614608 Eh     change       -0.1853806E-08 Eh
 * total energy  :   -62.8681121 Eh     change       -0.6651243E-02 Eh
 * total energy  :   -62.8701993 Eh     change       -0.2087257E-02 Eh
 * total energy  :   -62.8707988 Eh     change       -0.5994802E-03 Eh
 * total energy  :   -62.8715571 Eh     change       -0.7582852E-03 Eh
 * total energy  :   -62.8722559 Eh     change       -0.6988518E-03 Eh
 * total energy  :   -62.8728819 Eh     change       -0.6259436E-03 Eh
 * total energy  :   -62.8734819 Eh     change       -0.6000626E-03 Eh
 * total energy  :   -62.8739688 Eh     change       -0.4868471E-03 Eh
 * total energy  :   -62.8743304 Eh     change       -0.3615899E-03 Eh
 * total energy  :   -62.8751908 Eh     change       -0.3175550E-04 Eh
 * total energy  :   -62.8752256 Eh     change       -0.3473741E-04 Eh
 * total energy  :   -62.8752538 Eh     change       -0.2823125E-04 Eh
 * total energy  :   -62.8752954 Eh     change       -0.4161650E-04 Eh
 * total energy  :   -62.8753338 Eh     change       -0.3832572E-04 Eh
 * total energy  :   -62.8753256 Eh     change        0.8119056E-05 Eh
 * total energy  :   -62.8753620 Eh     change       -0.3634054E-04 Eh
 * total energy  :   -62.8753662 Eh     change       -0.4207623E-05 Eh
 * total energy  :   -62.8753696 Eh     change       -0.3465507E-05 Eh
   *** GEOMETRY OPTIMIZATION CONVERGED AFTER 37 ITERATIONS ***

 final structure:
================
42
 xtb: 6.5.1 (fef0646)
N            2.78586116941497       -0.88083239973151       -0.12867499722725
C            2.78580327112763        0.60624047927211       -0.08180630080044
C            3.58900442689388        1.05736882037381       -1.31105302923740
O            4.68590316458422        0.16892476478960       -1.35612052495883
C            5.38446879911317        0.01875910710200       -2.56175323948625
C            5.33705885578115        0.93028703956204       -3.57884716721165
C            6.04372707971690        0.68654722264079       -4.75555365229233
C            6.79721553831749       -0.45871050329304       -4.94092598730892
C            6.87676687999668       -1.40017112731270       -3.87702543110340
C            7.66178503128372       -2.58065678812607       -3.99023354629129
C            7.69586760870353       -3.46416427659663       -2.92257419830500
C            7.00103641201825       -3.21660979598338       -1.74303115324285
C            6.24670604100893       -2.08265040775521       -1.61052210387999
C            6.16382851083994       -1.15936986787456       -2.67053800345307
C            7.51182961116024       -0.72151259086646       -6.18275556524490
C            7.44120965174981        0.13539938282290       -7.26938448366369
C            8.13885875245746       -0.11575407577347       -8.44998209462144
C            8.92108254579752       -1.23203786093400       -8.56243129316523
C            9.02124859048324       -2.14098100709379       -7.49102320024219
C            9.82352534636950       -3.29331301202434       -7.60399423634701
C            9.91864328265810       -4.17267746659824       -6.56095531884700
C            9.21539920632438       -3.93879602315683       -5.38005789725665
C            8.40831293750517       -2.82411326628665       -5.21810156727924
C            8.30776783354335       -1.89360910694450       -6.28702573850648
H            2.71738096189507       -1.31937760628551        0.79306571664879
H            3.73833362512258       -1.05483258261356       -0.57801090700740
H            2.05118082299003       -1.25202594214293       -0.74012815734849
H            3.30316792871859        0.92188369241365        0.82453881641204
H            1.77708598872192        1.01444867927160       -0.08496944810053
H            3.91468664990357        2.09498905067839       -1.19204516099854
H            2.98918625048375        0.97513894668122       -2.22706620748796
H            4.77127315527589        1.84453266397370       -3.49041901080452
H            5.98136762538568        1.43515309299019       -5.52606922625111
H            8.27642002396465       -4.36934582289962       -2.97851253529320
H            7.06831815100778       -3.92357830791964       -0.92974303674474
H            5.74296599389009       -1.87277133692606       -0.67669965519237
H            6.83736402645987        1.02709349551086       -7.22838663112835
H            8.05617495582217        0.58044598508201       -9.27071072940657
H            9.47017809227078       -1.43459775381133       -9.46962404139247
H           10.35989317877688       -3.46563481780536       -8.52484440393455
H           10.53581598187655       -5.05450021138393       -6.64207943312967
H            9.32231604058410       -4.66054846502425       -4.58711521886799

          :  Hamiltonian                  GFN2-xTB          :
         :: total energy             -62.875369645667 Eh    ::
         :: gradient norm              0.000778639522 Eh/a0 ::
         :: HOMO-LUMO gap              1.826410649564 eV    ::
         :: SCC energy               -63.975621113503 Eh    ::
         :: -> dispersion             -0.050320114998 Eh    ::
         :: repulsion energy           1.100340007615 Eh    ::

    * Orbital Energies and Occupations

         #    Occupation            Energy/Eh            Energy/eV
      -------------------------------------------------------------
         1        2.0000           -0.8825988             -24.0167
       ...           ...                  ...                  ...
        46        2.0000           -0.5348097             -14.5529
        47        2.0000           -0.5289942             -14.3947
        48        2.0000           -0.5259675             -14.3123
        49        2.0000           -0.5202564             -14.1569
        50        2.0000           -0.5172688             -14.0756
        51        2.0000           -0.5132081             -13.9651
        52        2.0000           -0.4967831             -13.5182
        53        2.0000           -0.4876609             -13.2699
        54        2.0000           -0.4863831             -13.2352
        55        2.0000           -0.4852763             -13.2050
        56        2.0000           -0.4824624             -13.1285
        57        2.0000           -0.4755045             -12.9391
        58        2.0000           -0.4385654             -11.9340 (HOMO)
        59                         -0.3714461             -10.1076 (LUMO)
        60                         -0.3231078              -8.7922
        61                         -0.3096099              -8.4249
        62                         -0.3090414              -8.4094
        63                         -0.3011398              -8.1944
        64                         -0.2485755              -6.7641
        65                         -0.2407206              -6.5503
        66                         -0.2395738              -6.5191
        67                         -0.1979493              -5.3865
        68                         -0.1614323              -4.3928
        69                         -0.1525922              -4.1522
       ...                                ...                  ...
       114                          0.6531027              17.7718
      -------------------------------------------------------------
                  HL-Gap            0.0671194 Eh            1.8264 eV

     #   Z          covCN         q      C6AA      α(0)
     1   7 N        3.484    -0.148    24.187     7.304
     2   6 C        3.730    -0.036    21.315     6.591
     3   6 C        3.689     0.058    19.787     6.366
     4   8 O        1.704    -0.305    19.072     5.896
     5   6 C        2.859     0.108    25.621     8.297
     6   6 C        2.909    -0.063    29.579     8.918
     7   6 C        2.926    -0.042    29.042     8.838
     8   6 C        2.972     0.009    27.823     8.652
     9   6 C        2.994     0.006    27.884     8.662
    10   6 C        2.974     0.016    27.656     8.626
    11   6 C        2.923    -0.036    28.893     8.815
    12   6 C        2.913    -0.028    28.709     8.786
    13   6 C        2.919    -0.047    29.165     8.856
    14   6 C        2.983    -0.009    28.228     8.715
    15   6 C        2.974     0.005    27.904     8.665
    16   6 C        2.923    -0.030    28.760     8.794
    17   6 C        2.912    -0.027    28.678     8.781
    18   6 C        2.922    -0.028    28.699     8.785
    19   6 C        2.986     0.017    27.626     8.622
    20   6 C        2.922    -0.028    28.697     8.785
    21   6 C        2.912    -0.027    28.668     8.780
    22   6 C        2.923    -0.029    28.733     8.790
    23   6 C        2.973     0.005    27.917     8.667
    24   6 C        2.994     0.006    27.870     8.660
    25   1 H        0.859     0.262     0.839     1.435
    26   1 H        0.855     0.311     0.682     1.294
    27   1 H        0.859     0.260     0.844     1.439
    28   1 H        0.924     0.117     1.639     2.002
    29   1 H        0.925     0.107     1.719     2.050
    30   1 H        0.924     0.084     1.934     2.175
    31   1 H        0.923     0.063     2.166     2.301
    32   1 H        0.926     0.036     2.504     2.475
    33   1 H        0.926     0.050     2.317     2.380
    34   1 H        0.926     0.047     2.352     2.398
    35   1 H        0.926     0.039     2.468     2.457
    36   1 H        0.925     0.010     2.883     2.655
    37   1 H        0.926     0.040     2.454     2.450
    38   1 H        0.926     0.045     2.386     2.416
    39   1 H        0.926     0.048     2.349     2.397
    40   1 H        0.926     0.048     2.349     2.397
    41   1 H        0.926     0.045     2.377     2.411
    42   1 H        0.926     0.042     2.421     2.433

Wiberg/Mayer (AO) data.
largest (>0.10) Wiberg bond orders for each atom

     #   Z sym  total        # sym  WBO       # sym  WBO       # sym  WBO
 ---------------------------------------------------------------------------
     1   7 N    3.654 --     2 C    0.954    25 H    0.919    27 H    0.918
                            26 H    0.806
     2   6 C    3.912 --     3 C    0.996    29 H    0.970    28 H    0.967
                             1 N    0.954
     3   6 C    3.949 --     2 C    0.996     4 O    0.986    31 H    0.965
                            30 H    0.961
     4   8 O    2.197 --     3 C    0.986     5 C    0.956
     5   6 C    3.875 --     6 C    1.482    14 C    1.231     4 O    0.956
     6   6 C    3.988 --     5 C    1.482     7 C    1.354    32 H    0.965
     7   6 C    3.969 --     8 C    1.443     6 C    1.354    33 H    0.961
     8   6 C    3.987 --     7 C    1.443     9 C    1.243    15 C    1.104
     9   6 C    3.988 --    14 C    1.258    10 C    1.251     8 C    1.243
    10   6 C    3.987 --    11 C    1.435     9 C    1.251    23 C    1.103
    11   6 C    3.971 --    10 C    1.435    12 C    1.371    34 H    0.961
    12   6 C    3.990 --    13 C    1.513    11 C    1.371    35 H    0.970
    13   6 C    3.963 --    12 C    1.513    14 C    1.289    36 H    0.962
    14   6 C    3.986 --    13 C    1.289     9 C    1.258     5 C    1.231
    15   6 C    3.989 --    16 C    1.439    24 C    1.249     8 C    1.104
    16   6 C    3.969 --    15 C    1.439    17 C    1.364    37 H    0.962
    17   6 C    3.990 --    18 C    1.523    16 C    1.364    38 H    0.969
    18   6 C    3.962 --    17 C    1.523    19 C    1.281    39 H    0.967
    19   6 C    3.990 --    18 C    1.281    20 C    1.281    24 C    1.255
    20   6 C    3.962 --    21 C    1.524    19 C    1.281    40 H    0.967
    21   6 C    3.990 --    20 C    1.524    22 C    1.364    41 H    0.969
    22   6 C    3.970 --    23 C    1.439    21 C    1.364    42 H    0.961
    23   6 C    3.989 --    22 C    1.439    24 C    1.249    10 C    1.103
    24   6 C    3.989 --    19 C    1.255    23 C    1.249    15 C    1.249
    25   1 H    0.931 --     1 N    0.919
    26   1 H    0.903 --     1 N    0.806
    27   1 H    0.932 --     1 N    0.918
    28   1 H    0.986 --     2 C    0.967
    29   1 H    0.988 --     2 C    0.970
    30   1 H    0.992 --     3 C    0.961
    31   1 H    0.996 --     3 C    0.965
    32   1 H    0.998 --     6 C    0.965
    33   1 H    0.997 --     7 C    0.961
    34   1 H    0.997 --    11 C    0.961
    35   1 H    0.997 --    12 C    0.970
    36   1 H    0.999 --    13 C    0.962
    37   1 H    0.998 --    16 C    0.962
    38   1 H    0.997 --    17 C    0.969
    39   1 H    0.997 --    18 C    0.967
    40   1 H    0.997 --    20 C    0.967
    41   1 H    0.997 --    21 C    0.969
    42   1 H    0.998 --    22 C    0.961
 ---------------------------------------------------------------------------

molecular dipole:
                 x           y           z       tot (Debye)
 q only:        6.761      -1.488      -2.478
   full:        6.610      -1.479      -2.418      18.281

           -------------------------------------------------
          | TOTAL ENERGY              -62.875369645667 Eh   |
          | GRADIENT NORM               0.000778639522 Eh/α |
          | HOMO-LUMO GAP               1.826410649564 eV   |
           -------------------------------------------------

 * finished run on 2023/01/23 at 14:25:56.311
