   * xtb version 6.5.1 (fef0646) compiled by 'conda@b96dff2e9fd6' on 2023-01-04
          program call               : xtb init.xyz --opt -c 0 -u 0 -P 16 --alpb water

   ID    Z sym.   atoms
    1    7 N      1
    2    6 C      2-4
    3   17 Cl     5
    4    1 H      6-15

      * Solvation model:               ALPB
        Solvent                        water
        Solvent mass                       1.8000E+01 g/mol
          :  Hamiltonian                  GFN2-xTB          :
 * total energy  :   -19.0248968 Eh     change       -0.4441283E-09 Eh
 * total energy  :   -19.0284903 Eh     change       -0.3593484E-02 Eh
 * total energy  :   -19.0292918 Eh     change       -0.8015308E-03 Eh
 * total energy  :   -19.0295273 Eh     change       -0.2355467E-03 Eh
 * total energy  :   -19.0295857 Eh     change       -0.5836807E-04 Eh
 * total energy  :   -19.0296324 Eh     change       -0.4673252E-04 Eh
 * total energy  :   -19.0296740 Eh     change       -0.4158705E-04 Eh
 * total energy  :   -19.0297081 Eh     change       -0.3405802E-04 Eh
 * total energy  :   -19.0297451 Eh     change       -0.3704995E-04 Eh
 * total energy  :   -19.0297684 Eh     change       -0.2329096E-04 Eh
 * total energy  :   -19.0297865 Eh     change       -0.1807201E-04 Eh
 * total energy  :   -19.0297997 Eh     change       -0.1323091E-04 Eh
 * total energy  :   -19.0298069 Eh     change       -0.7126392E-05 Eh
 * total energy  :   -19.0298098 Eh     change       -0.2922663E-05 Eh
   *** GEOMETRY OPTIMIZATION CONVERGED AFTER 14 ITERATIONS ***

 final structure:
================
15
 xtb: 6.5.1 (fef0646)
N            1.08864462386718       -0.30006807745924        0.18206116006925
C            2.54180872184554       -0.31720563995526        0.44712570393027
C            3.01584891165080        1.06649359125336        0.87399870471554
C            4.53073699188746        1.10042356784879        1.03853125912670
Cl           0.47906841560496        1.64332459513591       -2.10066060701908
H            0.74666777406129       -1.21794778976684       -0.11046368484306
H            0.87661962127171        0.37738817060035       -0.59409469262510
H            0.57417347718984        0.01379100249305        1.00834385363822
H            3.05713984164623       -0.60554190237523       -0.46874957249338
H            2.76160540257824       -1.04759771250959        1.22707240265890
H            2.54647711429598        1.34711131077412        1.81778626806465
H            2.70956351861273        1.78916340107524        0.11537323295304
H            4.85282307218691        0.37408780597377        1.78067087984762
H            4.85579023314896        2.08611259342829        1.35982637432914
H            5.02257228015228        0.87269508348320        0.09606871764716

          :  Hamiltonian                  GFN2-xTB          :
         :: total energy             -19.029809786172 Eh    ::
         :: gradient norm              0.000211741066 Eh/a0 ::
         :: HOMO-LUMO gap             10.180437747651 eV    ::
         :: SCC energy               -19.233689105150 Eh    ::
         :: -> dispersion             -0.007001058580 Eh    ::
         :: -> Gsolv                  -0.072135261389 Eh    ::
         :: repulsion energy           0.203859547438 Eh    ::

    * Orbital Energies and Occupations

         #    Occupation            Energy/Eh            Energy/eV
      -------------------------------------------------------------
         1        2.0000           -1.0064169             -27.3860
       ...           ...                  ...                  ...
         5        2.0000           -0.5768082             -15.6958
         6        2.0000           -0.5668211             -15.4240
         7        2.0000           -0.5487583             -14.9325
         8        2.0000           -0.5349355             -14.5563
         9        2.0000           -0.5020280             -13.6609
        10        2.0000           -0.4797114             -13.0536
        11        2.0000           -0.4599519             -12.5159
        12        2.0000           -0.4553817             -12.3916
        13        2.0000           -0.4372111             -11.8971
        14        2.0000           -0.4242481             -11.5444
        15        2.0000           -0.4029703             -10.9654
        16        2.0000           -0.4006180             -10.9014
        17        2.0000           -0.4003773             -10.8948 (HOMO)
        18                         -0.0262531              -0.7144 (LUMO)
        19                          0.0768913               2.0923
        20                          0.1003667               2.7311
        21                          0.1048223               2.8524
        22                          0.1168117               3.1786
        23                          0.1172257               3.1899
        24                          0.1193587               3.2479
        25                          0.1195516               3.2532
        26                          0.1353879               3.6841
        27                          0.1451589               3.9500
        28                          0.1572152               4.2780
       ...                                ...                  ...
        35                          0.3102881               8.4434
      -------------------------------------------------------------
                  HL-Gap            0.3741242 Eh           10.1804 eV

     #   Z          covCN         q      C6AA      α(0)
     1   7 N        3.484    -0.170    24.668     7.377
     2   6 C        3.733    -0.026    21.137     6.562
     3   6 C        3.801    -0.072    21.881     6.660
     4   6 C        3.753    -0.120    22.851     6.817
     5  17 Cl       0.048    -0.948   124.915    17.010
     6   1 H        0.859     0.303     0.703     1.314
     7   1 H        0.905     0.292     0.733     1.340
     8   1 H        0.859     0.296     0.724     1.333
     9   1 H        0.925     0.095     1.833     2.118
    10   1 H        0.924     0.104     1.751     2.069
    11   1 H        0.924     0.059     2.215     2.327
    12   1 H        0.924     0.052     2.294     2.369
    13   1 H        0.925     0.052     2.296     2.370
    14   1 H        0.925     0.043     2.415     2.430
    15   1 H        0.925     0.041     2.436     2.441

Wiberg/Mayer (AO) data.
largest (>0.10) Wiberg bond orders for each atom

     #   Z sym  total        # sym  WBO       # sym  WBO       # sym  WBO
 ---------------------------------------------------------------------------
     1   7 N    3.645 --     2 C    0.967     8 H    0.897     6 H    0.894
                             7 H    0.834
     2   6 C    3.930 --     3 C    1.010     9 H    0.969    10 H    0.968
                             1 N    0.967
     3   6 C    3.993 --     4 C    1.018     2 C    1.010    11 H    0.975
                            12 H    0.975
     4   6 C    3.994 --     3 C    1.018    15 H    0.987    14 H    0.986
                            13 H    0.986
     5  17 Cl   0.101
     6   1 H    0.908 --     1 N    0.894
     7   1 H    0.915 --     1 N    0.834
     8   1 H    0.912 --     1 N    0.897
     9   1 H    0.991 --     2 C    0.969
    10   1 H    0.989 --     2 C    0.968
    11   1 H    0.997 --     3 C    0.975
    12   1 H    0.997 --     3 C    0.975
    13   1 H    0.997 --     4 C    0.986
    14   1 H    0.998 --     4 C    0.986
    15   1 H    0.998 --     4 C    0.987
 ---------------------------------------------------------------------------

molecular dipole:
                 x           y           z       tot (Debye)
 q only:        1.356      -3.425       4.163
   full:        1.053      -2.992       3.595      12.186

           -------------------------------------------------
          | TOTAL ENERGY              -19.029809786172 Eh   |
          | GRADIENT NORM               0.000211741066 Eh/α |
          | HOMO-LUMO GAP              10.180437747651 eV   |
           -------------------------------------------------

 * finished run on 2023/01/24 at 14:56:05.260
