   * xtb version 6.5.1 (fef0646) compiled by 'conda@b96dff2e9fd6' on 2023-01-04
          program call               : xtb init.xyz --opt -c 0 -u 0 -P 16 --alpb water

   ID    Z sym.   atoms
    1    7 N      1
    2    6 C      2-13
    3   17 Cl     14
    4    1 H      15-28

      * Solvation model:               ALPB
        Solvent                        water
        Solvent mass                       1.8000E+01 g/mol
          :  Hamiltonian                  GFN2-xTB          :
 * total energy  :   -40.3269011 Eh     change       -0.2737011E-09 Eh
 * total energy  :   -40.3324689 Eh     change       -0.5567835E-02 Eh
 * total energy  :   -40.3339092 Eh     change       -0.1440266E-02 Eh
 * total energy  :   -40.3343269 Eh     change       -0.4176709E-03 Eh
 * total energy  :   -40.3345645 Eh     change       -0.2376354E-03 Eh
 * total energy  :   -40.3347124 Eh     change       -0.1478889E-03 Eh
 * total energy  :   -40.3349326 Eh     change       -0.2202043E-03 Eh
 * total energy  :   -40.3353343 Eh     change       -0.4016366E-03 Eh
 * total energy  :   -40.3360989 Eh     change       -0.7646290E-03 Eh
 * total energy  :   -40.3365944 Eh     change       -0.4955451E-03 Eh
 * total energy  :   -40.3409900 Eh     change       -0.1891301E-04 Eh
 * total energy  :   -40.3410216 Eh     change       -0.3160353E-04 Eh
 * total energy  :   -40.3410553 Eh     change       -0.3366987E-04 Eh
 * total energy  :   -40.3410764 Eh     change       -0.2107160E-04 Eh
 * total energy  :   -40.3411080 Eh     change       -0.3163523E-04 Eh
 * total energy  :   -40.3411414 Eh     change       -0.3339770E-04 Eh
 * total energy  :   -40.3411601 Eh     change       -0.1866614E-04 Eh
 * total energy  :   -40.3411685 Eh     change       -0.8495026E-05 Eh
 * total energy  :   -40.3411730 Eh     change       -0.4420052E-05 Eh
   *** GEOMETRY OPTIMIZATION CONVERGED AFTER 34 ITERATIONS ***

 final structure:
================
28
 xtb: 6.5.1 (fef0646)
N            1.28720527595137        0.49920668745587        0.21851761381091
C            2.69618631042416        0.03381774421701        0.12259608094239
C            3.57569989321160        0.87545098309035        1.04053797687694
C            3.14412053875644        0.10282202365701       -1.31793046576531
C            3.50723545759674       -1.07793442627636       -1.99137098116848
C            3.90223756784534       -1.04592344977653       -3.29834729334108
C            3.19377166170752        1.29889264262170       -1.98694676798268
C            3.59656945476874        1.36764632705345       -3.33482919978933
C            3.95593927285409        0.17147016871930       -4.00813099197707
C            4.34874509670869        0.24053819561427       -5.36095085529391
C            4.38382966976896        1.43937397229785       -6.01680255224512
C            4.03186640702336        2.62389783589669       -5.34950820098763
C            3.64751801141873        2.58969042051989       -4.03865446360137
Cl          -0.50450800955074       -1.37429098584768       -1.36500307936270
H            0.65490589499943       -0.14027496417626       -0.33237047564212
H            1.18816316656285        1.43878752133586       -0.17547044467951
H            0.96396163481424        0.49948164833772        1.18969943073199
H            2.71470129240374       -1.01032497045635        0.44367660228291
H            3.55067470314240        1.92182764730070        0.75333927835522
H            4.60374436108490        0.53340773922821        0.97345321252564
H            3.25286692421599        0.77939658365739        2.07285853678560
H            3.45779397434882       -2.01989103245144       -1.46599655068156
H            4.17143197940548       -1.95785886810915       -3.81207509293219
H            2.92964594163387        2.22623689634775       -1.50039704660396
H            4.61827901040977       -0.67379681188784       -5.87044734256454
H            4.68205228231054        1.48433237959667       -7.05393897358037
H            4.06686214944703        3.56107211974713       -5.88488253575168
H            3.37557007673632        3.49992597228923       -3.52469541835998

          :  Hamiltonian                  GFN2-xTB          :
         :: total energy             -40.341172968725 Eh    ::
         :: gradient norm              0.000868532034 Eh/a0 ::
         :: HOMO-LUMO gap              3.216834499661 eV    ::
         :: SCC energy               -40.983796346931 Eh    ::
         :: -> dispersion             -0.026722192307 Eh    ::
         :: -> Gsolv                  -0.070840436879 Eh    ::
         :: repulsion energy           0.642426379520 Eh    ::

    * Orbital Energies and Occupations

         #    Occupation            Energy/Eh            Energy/eV
      -------------------------------------------------------------
         1        2.0000           -1.0056406             -27.3649
       ...           ...                  ...                  ...
        25        2.0000           -0.4653861             -12.6638
        26        2.0000           -0.4574169             -12.4469
        27        2.0000           -0.4473982             -12.1743
        28        2.0000           -0.4432494             -12.0614
        29        2.0000           -0.4370741             -11.8934
        30        2.0000           -0.4232284             -11.5166
        31        2.0000           -0.4162030             -11.3255
        32        2.0000           -0.4117286             -11.2037
        33        2.0000           -0.4029883             -10.9659
        34        2.0000           -0.3995022             -10.8710
        35        2.0000           -0.3993570             -10.8671
        36        2.0000           -0.3962739             -10.7832
        37        2.0000           -0.3763073             -10.2398 (HOMO)
        38                         -0.2580908              -7.0230 (LUMO)
        39                         -0.2270989              -6.1797
        40                         -0.1869813              -5.0880
        41                         -0.1461085              -3.9758
        42                         -0.0570901              -1.5535
        43                         -0.0183146              -0.4984
        44                          0.0705734               1.9204
        45                          0.0754314               2.0526
        46                          0.0923302               2.5124
        47                          0.1137797               3.0961
        48                          0.1167058               3.1757
       ...                                ...                  ...
        75                          0.6987324              19.0135
      -------------------------------------------------------------
                  HL-Gap            0.1182165 Eh            3.2168 eV

     #   Z          covCN         q      C6AA      α(0)
     1   7 N        3.486    -0.177    24.812     7.398
     2   6 C        3.787     0.034    20.009     6.371
     3   6 C        3.755    -0.146    23.366     6.892
     4   6 C        2.969     0.010    27.788     8.647
     5   6 C        2.920    -0.036    28.885     8.813
     6   6 C        2.917    -0.037    28.923     8.819
     7   6 C        2.923    -0.047    29.179     8.858
     8   6 C        2.986     0.012    27.747     8.641
     9   6 C        2.987     0.010    27.790     8.647
    10   6 C        2.918    -0.039    28.974     8.827
    11   6 C        2.916    -0.035    28.878     8.812
    12   6 C        2.916    -0.036    28.892     8.814
    13   6 C        2.918    -0.042    29.033     8.836
    14  17 Cl       0.064    -0.944   124.754    16.999
    15   1 H        0.920     0.294     0.727     1.334
    16   1 H        0.859     0.290     0.745     1.352
    17   1 H        0.859     0.302     0.706     1.317
    18   1 H        0.924     0.091     1.871     2.139
    19   1 H        0.925     0.077     2.013     2.219
    20   1 H        0.925     0.072     2.064     2.247
    21   1 H        0.925     0.077     2.012     2.218
    22   1 H        0.926     0.038     2.471     2.458
    23   1 H        0.926     0.029     2.601     2.522
    24   1 H        0.926     0.062     2.180     2.309
    25   1 H        0.926     0.029     2.607     2.525
    26   1 H        0.926     0.031     2.572     2.508
    27   1 H        0.926     0.035     2.510     2.478
    28   1 H        0.926     0.046     2.369     2.407

Wiberg/Mayer (AO) data.
largest (>0.10) Wiberg bond orders for each atom

     #   Z sym  total        # sym  WBO       # sym  WBO       # sym  WBO
 ---------------------------------------------------------------------------
     1   7 N    3.640 --     2 C    0.944    16 H    0.896    17 H    0.892
                            15 H    0.828
     2   6 C    3.937 --     3 C    1.002     4 C    0.993    18 H    0.959
                             1 N    0.944
     3   6 C    3.981 --     2 C    1.002    21 H    0.979    20 H    0.979
                            19 H    0.979
     4   6 C    3.988 --     7 C    1.526     5 C    1.300     2 C    0.993
     5   6 C    3.991 --     6 C    1.560     4 C    1.300    22 H    0.967
     6   6 C    3.992 --     5 C    1.560     9 C    1.279    23 H    0.968
                             7 C    0.116
     7   6 C    3.990 --     4 C    1.526     8 C    1.284    24 H    0.960
                             6 C    0.116
     8   6 C    3.990 --     7 C    1.284    13 C    1.278     9 C    1.250
     9   6 C    3.990 --    10 C    1.280     6 C    1.279     8 C    1.250
    10   6 C    3.992 --    11 C    1.558     9 C    1.280    25 H    0.969
                            13 C    0.118
    11   6 C    3.990 --    10 C    1.558    12 C    1.320    26 H    0.971
    12   6 C    3.992 --    13 C    1.559    11 C    1.320    27 H    0.971
    13   6 C    3.989 --    12 C    1.559     8 C    1.278    28 H    0.967
                            10 C    0.118
    14  17 Cl   0.109
    15   1 H    0.914 --     1 N    0.828
    16   1 H    0.916 --     1 N    0.896
    17   1 H    0.908 --     1 N    0.892
    18   1 H    0.991 --     2 C    0.959
    19   1 H    0.994 --     3 C    0.979
    20   1 H    0.995 --     3 C    0.979
    21   1 H    0.993 --     3 C    0.979
    22   1 H    0.998 --     5 C    0.967
    23   1 H    0.998 --     6 C    0.968
    24   1 H    0.996 --     7 C    0.960
    25   1 H    0.999 --    10 C    0.969
    26   1 H    0.999 --    11 C    0.971
    27   1 H    0.998 --    12 C    0.971
    28   1 H    0.997 --    13 C    0.967
 ---------------------------------------------------------------------------

molecular dipole:
                 x           y           z       tot (Debye)
 q only:        3.458       3.501       3.029
   full:        2.931       3.001       2.491      12.400

           -------------------------------------------------
          | TOTAL ENERGY              -40.341172968725 Eh   |
          | GRADIENT NORM               0.000868532034 Eh/α |
          | HOMO-LUMO GAP               3.216834499661 eV   |
           -------------------------------------------------

 * finished run on 2023/01/24 at 14:58:18.226
