   * xtb version 6.5.1 (fef0646) compiled by 'conda@b96dff2e9fd6' on 2023-01-04
          program call               : xtb init.xyz --opt -c 0 -u 0 -P 16 --alpb water

   ID    Z sym.   atoms
    1    7 N      1
    2    6 C      2-21
    3   16 S      22-25
    4   17 Cl     26
    5    1 H      27-46

      * Solvation model:               ALPB
        Solvent                        water
        Solvent mass                       1.8000E+01 g/mol
          :  Hamiltonian                  GFN2-xTB          :
 * total energy  :   -73.4906564 Eh     change       -0.1523958E-08 Eh
 * total energy  :   -73.5006957 Eh     change       -0.1003927E-01 Eh
 * total energy  :   -73.5040879 Eh     change       -0.3392214E-02 Eh
 * total energy  :   -73.5053350 Eh     change       -0.1247127E-02 Eh
 * total energy  :   -73.5065567 Eh     change       -0.1221667E-02 Eh
 * total energy  :   -73.5076378 Eh     change       -0.1081149E-02 Eh
 * total energy  :   -73.5089170 Eh     change       -0.1279160E-02 Eh
 * total energy  :   -73.5101359 Eh     change       -0.1218865E-02 Eh
 * total energy  :   -73.5108754 Eh     change       -0.7395595E-03 Eh
 * total energy  :   -73.5112734 Eh     change       -0.3979876E-03 Eh
 * total energy  :   -73.5142435 Eh     change       -0.1479675E-04 Eh
 * total energy  :   -73.5142551 Eh     change       -0.1158943E-04 Eh
 * total energy  :   -73.5142712 Eh     change       -0.1612075E-04 Eh
 * total energy  :   -73.5142778 Eh     change       -0.6627964E-05 Eh
 * total energy  :   -73.5142936 Eh     change       -0.1577418E-04 Eh
 * total energy  :   -73.5143022 Eh     change       -0.8598970E-05 Eh
 * total energy  :   -73.5143090 Eh     change       -0.6857018E-05 Eh
 * total energy  :   -73.5143178 Eh     change       -0.8780661E-05 Eh
 * total energy  :   -73.5143207 Eh     change       -0.2909104E-05 Eh
   *** GEOMETRY OPTIMIZATION CONVERGED AFTER 48 ITERATIONS ***

 final structure:
================
46
 xtb: 6.5.1 (fef0646)
N            2.11283356451787        1.44537382679635       -0.18541638933468
C            2.55204015907611        2.83462029993772        0.05081831080033
C            3.59765585602551        2.85520360835326        1.16640873815376
C            4.82866105435697        2.11070439100014        0.77934208040306
C            5.11869921509242        0.79921166425785        1.01941649340704
C            6.35191554063131        0.39138125175540        0.48203911746888
C            7.00928751390691        1.39656096472988       -0.18553819569342
C            8.26859622036415        1.34144868333221       -0.85200067049056
C            9.09062264524830        0.25621258317543       -1.03600691362783
C           10.27099268008787        0.53539264488201       -1.74451134797968
C           11.29551061730099       -0.50193004077276       -2.05537738086421
C           10.36211028192936        1.86522635243295       -2.11305234194977
C           11.37643067167813        2.55581877815579       -2.83182760387554
C           11.39837810916663        3.89604197120115       -3.14859194554019
C           12.52875692149714        4.28955704053889       -3.87010079545562
C           13.40357170918114        3.25867785671518       -4.12382347509379
C           14.64600754453200        3.25432456424486       -4.83043661087206
C           15.47078763251799        4.29977778545293       -5.18758536136275
C           15.23968152226874        5.74004057506362       -4.87086293562940
C           16.61608722940495        3.85311520808401       -5.88841164628553
C           16.66578768809269        2.50762183650190       -6.05598082196512
S           15.30572493570323        1.72462540718226       -5.35837454297567
S           12.80251898508987        1.76810291732561       -3.44846034299002
S            8.96747858393200        2.76382881583670       -1.57001960836869
S            6.08794930697288        2.87064945332806       -0.14248244131292
Cl           1.52072996520753       -0.01151321657513        2.44676133903173
H            1.32407730597513        1.39988092613067       -0.83352856882916
H            1.82828004990484        0.99476257499557        0.72188042188425
H            2.88961858148071        0.88289050582646       -0.54313819056501
H            1.69361929543750        3.42857332517051        0.35917459213495
H            2.97567187650637        3.24618440734648       -0.86633625951920
H            3.16877951569628        2.38072517561378        2.05082534054458
H            3.84845887221074        3.88815825198379        1.40268304807052
H            4.46350502090097        0.15409053391245        1.57921636107411
H            6.74787218582906       -0.60232781491754        0.58417124582751
H            8.84846216068087       -0.72560286884617       -0.67121727823161
H           10.98407583795499       -1.46264383057752       -1.65563276211845
H           12.25869490197327       -0.23435645037821       -1.62156658105267
H           11.43473659907905       -0.59535200913927       -3.13209896837294
H           10.60783995580189        4.56797231190990       -2.86336789413972
H           12.67882664287660        5.29413144440174       -4.21444320492999
H           14.90322373857415        5.85887447187401       -3.84291496419158
H           14.48385757831445        6.16192636115304       -5.53312619589782
H           16.16209499054456        6.29789320281613       -5.00783178294913
H           17.37719308382255        4.52155947291512       -6.24931575425455
H           17.41607565354472        1.91946478473272       -6.54414731147094

          :  Hamiltonian                  GFN2-xTB          :
         :: total energy             -73.514320732603 Eh    ::
         :: gradient norm              0.000368072807 Eh/a0 ::
         :: HOMO-LUMO gap              1.785822207963 eV    ::
         :: SCC energy               -74.542282967645 Eh    ::
         :: -> dispersion             -0.058652390832 Eh    ::
         :: -> Gsolv                  -0.070985957012 Eh    ::
         :: repulsion energy           1.028635851497 Eh    ::

    * Orbital Energies and Occupations

         #    Occupation            Energy/Eh            Energy/eV
      -------------------------------------------------------------
         1        2.0000           -1.0067976             -27.3964
       ...           ...                  ...                  ...
        56        2.0000           -0.4371940             -11.8967
        57        2.0000           -0.4363407             -11.8734
        58        2.0000           -0.4314491             -11.7403
        59        2.0000           -0.4053186             -11.0293
        60        2.0000           -0.4030537             -10.9676
        61        2.0000           -0.4007357             -10.9046
        62        2.0000           -0.4003158             -10.8931
        63        2.0000           -0.3974335             -10.8147
        64        2.0000           -0.3948716             -10.7450
        65        2.0000           -0.3920124             -10.6672
        66        2.0000           -0.3912559             -10.6466
        67        2.0000           -0.3763937             -10.2422
        68        2.0000           -0.3501958              -9.5293 (HOMO)
        69                         -0.2845680              -7.7435 (LUMO)
        70                         -0.2572160              -6.9992
        71                         -0.2284482              -6.2164
        72                         -0.2226825              -6.0595
        73                         -0.2161392              -5.8814
        74                         -0.2015994              -5.4858
        75                         -0.1888142              -5.1379
        76                         -0.1839596              -5.0058
        77                         -0.1805729              -4.9136
        78                         -0.1623654              -4.4182
        79                         -0.1480632              -4.0290
       ...                                ...                  ...
       149                          0.7020023              19.1025
      -------------------------------------------------------------
                  HL-Gap            0.0656278 Eh            1.7858 eV

     #   Z          covCN         q      C6AA      α(0)
     1   7 N        3.484    -0.165    24.567     7.362
     2   6 C        3.734    -0.028    21.172     6.567
     3   6 C        3.826    -0.086    22.126     6.693
     4   6 C        2.987     0.028    27.375     8.583
     5   6 C        3.106    -0.060    29.337     8.875
     6   6 C        3.104    -0.056    29.261     8.864
     7   6 C        3.020     0.011    27.742     8.640
     8   6 C        3.014     0.019    27.575     8.614
     9   6 C        3.109    -0.065    29.461     8.893
    10   6 C        3.126    -0.001    27.851     8.641
    11   6 C        3.756    -0.118    22.805     6.809
    12   6 C        3.017     0.006    27.865     8.659
    13   6 C        3.029     0.019    27.549     8.609
    14   6 C        3.107    -0.058    29.282     8.866
    15   6 C        3.097    -0.057    29.299     8.871
    16   6 C        3.027     0.017    27.600     8.617
    17   6 C        3.031     0.006    27.856     8.657
    18   6 C        3.133    -0.005    27.924     8.650
    19   6 C        3.755    -0.116    22.777     6.805
    20   6 C        3.121    -0.057    29.228     8.854
    21   6 C        2.930    -0.025    28.631     8.775
    22  16 S        2.375    -0.065   143.753    20.179
    23  16 S        2.404    -0.061   143.590    20.168
    24  16 S        2.379    -0.070   143.964    20.194
    25  16 S        2.373    -0.039   142.651    20.102
    26  17 Cl       0.041    -0.948   124.911    17.009
    27   1 H        0.860     0.309     0.687     1.298
    28   1 H        0.897     0.298     0.717     1.325
    29   1 H        0.859     0.284     0.762     1.368
    30   1 H        0.925     0.115     1.657     2.013
    31   1 H        0.924     0.114     1.660     2.015
    32   1 H        0.924     0.085     1.933     2.174
    33   1 H        0.925     0.090     1.882     2.145
    34   1 H        0.926     0.051     2.306     2.375
    35   1 H        0.926     0.033     2.541     2.493
    36   1 H        0.926     0.041     2.439     2.442
    37   1 H        0.925     0.059     2.205     2.322
    38   1 H        0.925     0.060     2.200     2.320
    39   1 H        0.925     0.062     2.175     2.306
    40   1 H        0.926     0.046     2.367     2.406
    41   1 H        0.926     0.051     2.308     2.376
    42   1 H        0.925     0.054     2.270     2.356
    43   1 H        0.925     0.058     2.224     2.332
    44   1 H        0.925     0.059     2.213     2.326
    45   1 H        0.926     0.049     2.337     2.391
    46   1 H        0.927     0.057     2.235     2.338

Wiberg/Mayer (AO) data.
largest (>0.10) Wiberg bond orders for each atom

     #   Z sym  total        # sym  WBO       # sym  WBO       # sym  WBO
 ---------------------------------------------------------------------------
     1   7 N    3.646 --     2 C    0.971    29 H    0.899    27 H    0.891
                            28 H    0.832
     2   6 C    3.926 --     3 C    0.991     1 N    0.971    31 H    0.965
                            30 H    0.965
     3   6 C    3.988 --     4 C    1.027     2 C    0.991    33 H    0.960
                            32 H    0.959
     4   6 C    3.922 --     5 C    1.563    25 S    1.160     3 C    1.027
     5   6 C    3.985 --     4 C    1.563     6 C    1.306    34 H    0.961
     6   6 C    3.969 --     7 C    1.494     5 C    1.306    35 H    0.964
     7   6 C    3.952 --     6 C    1.494     8 C    1.162    25 S    1.128
     8   6 C    3.930 --     9 C    1.477     7 C    1.162    24 S    1.126
     9   6 C    3.980 --     8 C    1.477    10 C    1.312    36 H    0.962
    10   6 C    3.973 --    12 C    1.439     9 C    1.312    11 C    1.029
    11   6 C    3.993 --    10 C    1.029    37 H    0.981    38 H    0.963
                            39 H    0.963
    12   6 C    3.930 --    10 C    1.439    13 C    1.183    24 S    1.105
    13   6 C    3.938 --    14 C    1.464    12 C    1.183    23 S    1.119
    14   6 C    3.970 --    13 C    1.464    15 C    1.344    40 H    0.960
    15   6 C    3.984 --    16 C    1.473    14 C    1.344    41 H    0.960
    16   6 C    3.929 --    15 C    1.473    17 C    1.158    23 S    1.124
    17   6 C    3.943 --    18 C    1.476    16 C    1.158    22 S    1.117
    18   6 C    3.968 --    17 C    1.476    20 C    1.268    19 C    1.026
    19   6 C    3.994 --    18 C    1.026    44 H    0.981    42 H    0.973
                            43 H    0.964
    20   6 C    3.985 --    21 C    1.612    18 C    1.268    45 H    0.963
    21   6 C    3.923 --    20 C    1.612    22 S    1.187    46 H    0.968
    22  16 S    2.591 --    21 C    1.187    17 C    1.117
    23  16 S    2.583 --    16 C    1.124    13 C    1.119
    24  16 S    2.554 --     8 C    1.126    12 C    1.105
    25  16 S    2.587 --     4 C    1.160     7 C    1.128
    26  17 Cl   0.101
    27   1 H    0.904 --     1 N    0.891
    28   1 H    0.911 --     1 N    0.832
    29   1 H    0.919 --     1 N    0.899
    30   1 H    0.986 --     2 C    0.965
    31   1 H    0.987 --     2 C    0.965
    32   1 H    0.992 --     3 C    0.959
    33   1 H    0.991 --     3 C    0.960
    34   1 H    0.997 --     5 C    0.961
    35   1 H    0.999 --     6 C    0.964
    36   1 H    0.998 --     9 C    0.962
    37   1 H    0.995 --    11 C    0.981
    38   1 H    0.995 --    11 C    0.963
    39   1 H    0.995 --    11 C    0.963
    40   1 H    0.997 --    14 C    0.960
    41   1 H    0.997 --    15 C    0.960
    42   1 H    0.996 --    19 C    0.973
    43   1 H    0.995 --    19 C    0.964
    44   1 H    0.996 --    19 C    0.981
    45   1 H    0.997 --    20 C    0.963
    46   1 H    0.996 --    21 C    0.968
 ---------------------------------------------------------------------------

molecular dipole:
                 x           y           z       tot (Debye)
 q only:        0.716       3.130      -4.341
   full:        0.921       2.474      -3.720      11.594

           -------------------------------------------------
          | TOTAL ENERGY              -73.514320732603 Eh   |
          | GRADIENT NORM               0.000368072807 Eh/α |
          | HOMO-LUMO GAP               1.785822207963 eV   |
           -------------------------------------------------

 * finished run on 2023/01/24 at 15:37:57.324
