   * xtb version 6.5.1 (fef0646) compiled by 'conda@b96dff2e9fd6' on 2023-01-04
          program call               : xtb init.xyz --opt -c 0 -u 0 -P 16 --input xtb.inp

   ID    Z sym.   atoms
    1    7 N      1
    2    6 C      2-21
    3   16 S      22-25
    4   17 Cl     26
    5    1 H      27-46

          :  Hamiltonian                  GFN2-xTB          :
 * total energy  :   -73.4355528 Eh     change       -0.1480686E-08 Eh
 * total energy  :   -73.4489777 Eh     change       -0.1342486E-01 Eh
 * total energy  :   -73.4561554 Eh     change       -0.7177748E-02 Eh
 * total energy  :   -73.4593676 Eh     change       -0.3212179E-02 Eh
 * total energy  :   -73.4622207 Eh     change       -0.2853043E-02 Eh
 * total energy  :   -73.4644182 Eh     change       -0.2197560E-02 Eh
 * total energy  :   -73.4661136 Eh     change       -0.1695334E-02 Eh
 * total energy  :   -73.4669538 Eh     change       -0.8401940E-03 Eh
 * total energy  :   -73.4672899 Eh     change       -0.3361016E-03 Eh
 * total energy  :   -73.4674626 Eh     change       -0.1727468E-03 Eh
 * total energy  :   -73.4710110 Eh     change       -0.1029413E-04 Eh
 * total energy  :   -73.4710266 Eh     change       -0.1557837E-04 Eh
 * total energy  :   -73.4710476 Eh     change       -0.2102869E-04 Eh
 * total energy  :   -73.4710701 Eh     change       -0.2255942E-04 Eh
 * total energy  :   -73.4710864 Eh     change       -0.1629150E-04 Eh
 * total energy  :   -73.4710983 Eh     change       -0.1191301E-04 Eh
 * total energy  :   -73.4711094 Eh     change       -0.1107596E-04 Eh
 * total energy  :   -73.4711172 Eh     change       -0.7820176E-05 Eh
 * total energy  :   -73.4711220 Eh     change       -0.4725248E-05 Eh
   *** GEOMETRY OPTIMIZATION CONVERGED AFTER 58 ITERATIONS ***

 final structure:
================
46
 xtb: 6.5.1 (fef0646)
N            1.29197497363738        0.89437511315069        2.64874620173577
C            2.60627037659026        1.04860786487403        2.03075024346772
C            3.49831008469302       -0.14110591195092        2.40670612366387
C            4.81103393092644       -0.06473207337585        1.70973872999965
C            5.22931438158986       -0.76257234510159        0.61712629080166
C            6.52290639879305       -0.41565171069312        0.19032040655158
C            7.10271789579319        0.56303048011305        0.95878434474179
C            8.39559027167538        1.14717386817426        0.81405757324742
C            9.35072964028409        0.86192288746917       -0.13189687913335
C           10.53207324436443        1.60991280514141       -0.00741796174087
C           11.69125616916392        1.45189269664979       -0.93193700756337
C           10.48794358534690        2.49045337690038        1.05808018361335
C           11.46228984504174        3.41472645059211        1.52819404853835
C           11.35611120671094        4.23760104490104        2.62748313839224
C           12.47761570504604        5.04318336153331        2.84202888735638
C           13.47155061386418        4.85714454382234        1.90982680729293
C           14.74497533526553        5.49785367290542        1.79197199453097
C           15.50543112705978        6.12839226703381        2.75228702225207
C           15.15464859738264        6.24580638514982        4.19891875112383
C           16.71158824600334        6.64080090102086        2.22008365131194
C           16.86699101610450        6.40056841306108        0.89358404838597
S           15.53891201729169        5.53498436998179        0.23771446825679
S           12.99789318180768        3.65477912876324        0.74282398624819
S            8.96280393455906        2.37830109891235        1.90098105680120
S            6.02415289016480        1.06049889675837        2.23197959704206
Cl           0.13619520845276       -1.65611010038278        1.76491468643078
H            0.66888881503243        1.64861109131110        2.38249408043527
H            1.36989747041456        0.87524746718955        3.66066131326442
H            0.66801265960301       -0.46097446386992        2.17564899913768
H            3.10399088353382        1.98260992732184        2.32851891845885
H            2.46450699822995        1.06599827470550        0.94736804847567
H            2.99020493566389       -1.06385385695148        2.12414391052436
H            3.64985487139244       -0.14456689124597        3.48933337320064
H            4.62610440090773       -1.51193080321424        0.13635785799518
H            7.01242596602828       -0.87052727354422       -0.65111068074684
H            9.20545311962756        0.12635598201868       -0.90250206870583
H           11.48010156634678        0.67655306997080       -1.66363139024928
H           12.59112555767085        1.17955296756141       -0.38096790551082
H           11.89653562926059        2.38422256953424       -1.45777538554623
H           10.48082622238498        4.25177144361216        3.25333226623329
H           12.53829360737672        5.76181203710883        3.63730488701668
H           14.67675185544460        5.33545467269379        4.55563145221605
H           14.47255823409253        7.08070404511940        4.36492099317868
H           16.05479237794354        6.42452550344357        4.78276953538844
H           17.43745638703848        7.16569807188614        2.81612215009390
H           17.68205856440073        6.67834867994506        0.25544925179553

          :  Hamiltonian                  GFN2-xTB          :
         :: total energy             -73.471121972753 Eh    ::
         :: gradient norm              0.000716983488 Eh/a0 ::
         :: HOMO-LUMO gap              1.807286857260 eV    ::
         :: SCC energy               -74.490805947025 Eh    ::
         :: -> dispersion             -0.058127016767 Eh    ::
         :: repulsion energy           1.020439028070 Eh    ::

    * Orbital Energies and Occupations

         #    Occupation            Energy/Eh            Energy/eV
      -------------------------------------------------------------
         1        2.0000           -1.0209677             -27.7819
       ...           ...                  ...                  ...
        56        2.0000           -0.4422217             -12.0335
        57        2.0000           -0.4398362             -11.9686
        58        2.0000           -0.4321403             -11.7591
        59        2.0000           -0.4069788             -11.0745
        60        2.0000           -0.4035637             -10.9815
        61        2.0000           -0.3993404             -10.8666
        62        2.0000           -0.3979206             -10.8280
        63        2.0000           -0.3978506             -10.8261
        64        2.0000           -0.3973854             -10.8134
        65        2.0000           -0.3935964             -10.7103
        66        2.0000           -0.3918919             -10.6639
        67        2.0000           -0.3787750             -10.3070
        68        2.0000           -0.3521458              -9.5824 (HOMO)
        69                         -0.2857292              -7.7751 (LUMO)
        70                         -0.2586090              -7.0371
        71                         -0.2310254              -6.2865
        72                         -0.2233881              -6.0787
        73                         -0.2161275              -5.8811
        74                         -0.2031930              -5.5292
        75                         -0.1925739              -5.2402
        76                         -0.1860056              -5.0615
        77                         -0.1826519              -4.9702
        78                         -0.1642276              -4.4689
        79                         -0.1510561              -4.1104
       ...                                ...                  ...
       149                          0.6996764              19.0392
      -------------------------------------------------------------
                  HL-Gap            0.0664166 Eh            1.8073 eV

     #   Z          covCN         q      C6AA      α(0)
     1   7 N        2.690    -0.305    27.842     7.837
     2   6 C        3.733     0.010    20.500     6.462
     3   6 C        3.827    -0.076    21.921     6.662
     4   6 C        2.987     0.021    27.530     8.607
     5   6 C        3.110    -0.054    29.175     8.849
     6   6 C        3.106    -0.053    29.169     8.849
     7   6 C        3.019     0.019    27.553     8.610
     8   6 C        3.012     0.021    27.523     8.606
     9   6 C        3.111    -0.060    29.325     8.872
    10   6 C        3.126     0.001    27.807     8.634
    11   6 C        3.756    -0.108    22.610     6.780
    12   6 C        3.017     0.011    27.756     8.642
    13   6 C        3.027     0.022    27.498     8.601
    14   6 C        3.108    -0.052    29.145     8.845
    15   6 C        3.099    -0.052    29.171     8.851
    16   6 C        3.026     0.020    27.537     8.608
    17   6 C        3.030     0.008    27.803     8.649
    18   6 C        3.137    -0.004    27.899     8.645
    19   6 C        3.755    -0.103    22.523     6.767
    20   6 C        3.121    -0.052    29.099     8.834
    21   6 C        2.931    -0.020    28.517     8.758
    22  16 S        2.359    -0.039   142.658    20.102
    23  16 S        2.386    -0.044   142.871    20.117
    24  16 S        2.373    -0.053   143.256    20.145
    25  16 S        2.374    -0.049   143.071    20.132
    26  17 Cl       0.838    -0.483   115.070    16.410
    27   1 H        0.860     0.168     1.284     1.775
    28   1 H        0.860     0.169     1.278     1.771
    29   1 H        0.896     0.333     0.621     1.233
    30   1 H        0.923     0.033     2.539     2.492
    31   1 H        0.924     0.056     2.251     2.346
    32   1 H        0.924     0.077     2.013     2.219
    33   1 H        0.924     0.053     2.279     2.361
    34   1 H        0.926     0.044     2.392     2.419
    35   1 H        0.926     0.039     2.466     2.456
    36   1 H        0.926     0.037     2.488     2.467
    37   1 H        0.925     0.050     2.322     2.383
    38   1 H        0.925     0.055     2.252     2.347
    39   1 H        0.925     0.056     2.246     2.344
    40   1 H        0.926     0.041     2.434     2.440
    41   1 H        0.926     0.040     2.444     2.445
    42   1 H        0.925     0.046     2.365     2.405
    43   1 H        0.924     0.046     2.368     2.406
    44   1 H        0.925     0.047     2.352     2.398
    45   1 H        0.926     0.037     2.491     2.468
    46   1 H        0.926     0.044     2.394     2.420

Wiberg/Mayer (AO) data.
largest (>0.10) Wiberg bond orders for each atom

     #   Z sym  total        # sym  WBO       # sym  WBO       # sym  WBO
 ---------------------------------------------------------------------------
     1   7 N    3.236 --     2 C    1.007    27 H    0.958    28 H    0.957
                            29 H    0.203
     2   6 C    3.971 --     1 N    1.007     3 C    0.986    31 H    0.975
                            30 H    0.972
     3   6 C    3.992 --     4 C    1.026     2 C    0.986    33 H    0.966
                            32 H    0.963
     4   6 C    3.924 --     5 C    1.572    25 S    1.156     3 C    1.026
     5   6 C    3.985 --     4 C    1.572     6 C    1.302    34 H    0.963
     6   6 C    3.968 --     7 C    1.498     5 C    1.302    35 H    0.963
     7   6 C    3.949 --     6 C    1.498     8 C    1.162    25 S    1.125
     8   6 C    3.933 --     9 C    1.474     7 C    1.162    24 S    1.130
     9   6 C    3.981 --     8 C    1.474    10 C    1.316    36 H    0.962
    10   6 C    3.974 --    12 C    1.438     9 C    1.316    11 C    1.028
    11   6 C    3.995 --    10 C    1.028    37 H    0.982    38 H    0.965
                            39 H    0.964
    12   6 C    3.931 --    10 C    1.438    13 C    1.181    24 S    1.111
    13   6 C    3.940 --    14 C    1.465    12 C    1.181    23 S    1.123
    14   6 C    3.971 --    13 C    1.465    15 C    1.345    40 H    0.960
    15   6 C    3.984 --    16 C    1.475    14 C    1.345    41 H    0.962
    16   6 C    3.930 --    15 C    1.475    17 C    1.152    23 S    1.130
    17   6 C    3.946 --    18 C    1.482    16 C    1.152    22 S    1.123
    18   6 C    3.970 --    17 C    1.482    20 C    1.269    19 C    1.025
    19   6 C    3.996 --    18 C    1.025    44 H    0.982    42 H    0.976
                            43 H    0.967
    20   6 C    3.986 --    21 C    1.610    18 C    1.269    45 H    0.964
    21   6 C    3.929 --    20 C    1.610    22 S    1.193    46 H    0.970
    22  16 S    2.602 --    21 C    1.193    17 C    1.123
    23  16 S    2.592 --    16 C    1.130    13 C    1.123
    24  16 S    2.564 --     8 C    1.130    12 C    1.111
    25  16 S    2.575 --     4 C    1.156     7 C    1.125
    26  17 Cl   0.770 --    29 H    0.682
    27   1 H    0.971 --     1 N    0.958
    28   1 H    0.971 --     1 N    0.957
    29   1 H    0.889 --    26 Cl   0.682     1 N    0.203
    30   1 H    0.999 --     2 C    0.972
    31   1 H    0.997 --     2 C    0.975
    32   1 H    0.994 --     3 C    0.963
    33   1 H    0.996 --     3 C    0.966
    34   1 H    0.997 --     5 C    0.963
    35   1 H    0.998 --     6 C    0.963
    36   1 H    0.998 --     9 C    0.962
    37   1 H    0.997 --    11 C    0.982
    38   1 H    0.996 --    11 C    0.965
    39   1 H    0.996 --    11 C    0.964
    40   1 H    0.998 --    14 C    0.960
    41   1 H    0.998 --    15 C    0.962
    42   1 H    0.997 --    19 C    0.976
    43   1 H    0.996 --    19 C    0.967
    44   1 H    0.997 --    19 C    0.982
    45   1 H    0.998 --    20 C    0.964
    46   1 H    0.997 --    21 C    0.970
 ---------------------------------------------------------------------------

molecular dipole:
                 x           y           z       tot (Debye)
 q only:        0.886       1.493       0.601
   full:        0.812       1.392       0.645       4.412

           -------------------------------------------------
          | TOTAL ENERGY              -73.471121972753 Eh   |
          | GRADIENT NORM               0.000716983488 Eh/α |
          | HOMO-LUMO GAP               1.807286857260 eV   |
           -------------------------------------------------

 * finished run on 2023/01/23 at 19:26:13.093
