   * xtb version 6.5.1 (fef0646) compiled by 'conda@b96dff2e9fd6' on 2023-01-04
          program call               : xtb init.xyz --opt -c 1 -u 0 -P 16 --input xtb.inp

   ID    Z sym.   atoms
    1    7 N      1
    2    6 C      2-9
    3    1 H      10-29

          :  Hamiltonian                  GFN2-xTB          :
 * total energy  :   -29.8252451 Eh     change       -0.8003553E-10 Eh
 * total energy  :   -29.8265725 Eh     change       -0.1327473E-02 Eh
 * total energy  :   -29.8267028 Eh     change       -0.1302324E-03 Eh
 * total energy  :   -29.8267232 Eh     change       -0.2041365E-04 Eh
 * total energy  :   -29.8267255 Eh     change       -0.2361731E-05 Eh
   *** GEOMETRY OPTIMIZATION CONVERGED AFTER 5 ITERATIONS ***

 final structure:
================
29
 xtb: 6.5.1 (fef0646)
N            1.01102846217495        0.00607690649824       -0.06702609563213
C            2.51037882355047        0.01298320671919       -0.05684024743318
C            3.03150540440861        0.90708101649585        1.05787152087654
C            4.56313750981367        0.92096729086124        1.07625646523130
C            5.10031041469146        1.81683514766268        2.19153442323308
C            6.62723352698965        1.83780820318481        2.21622884376461
C            7.16288405731022        2.73320858111118        3.33117669972829
C            8.68940088750260        2.75828851300892        3.36232513340149
C            9.21491161861183        3.65401246352670        4.47706831638577
H            0.63985377226414       -0.59437046158056       -0.81384125609557
H            0.66208745182556        0.96398085336485       -0.20507421958454
H            0.66105631553083       -0.33358788148793        0.83880652799219
H            2.85970258908772        0.37087779385389       -1.02615761427574
H            2.85854771640348       -1.01119815566556        0.08291796498437
H            2.67242068882836        0.54814037118240        2.02437209194412
H            2.67325390602259        1.92865803601319        0.91666211831376
H            4.93564373515269        1.28012381354000        0.11580033840070
H            4.93490218037880       -0.09454208019859        1.22031092832957
H            4.73115356691269        1.45903137481402        3.15480650560195
H            4.73019482788231        2.83434616007787        2.05049189608526
H            7.00057110206956        2.19673356344715        1.25482650480880
H            7.00164578015970        0.82188896042641        2.35840342716717
H            6.79003241362022        2.37528825763733        4.29349608363865
H            6.78997228689084        3.75007659465034        3.18942787714846
H            9.06412714098695        3.11704560490962        2.40128172900642
H            9.06415734705356        1.74255109877131        3.50571628323967
H            8.86913795357636        4.67631099260403        4.34140599256615
H           10.30166781249819        3.65781491053661        4.48168537972826
H            8.86925070780200        3.30132886403481        5.44618638144460

          :  Hamiltonian                  GFN2-xTB          :
         :: total energy             -29.826725531940 Eh    ::
         :: gradient norm              0.000486646154 Eh/a0 ::
         :: HOMO-LUMO gap              5.984323478043 eV    ::
         :: SCC energy               -30.264000675020 Eh    ::
         :: -> dispersion             -0.015845318653 Eh    ::
         :: repulsion energy           0.437416472701 Eh    ::

    * Orbital Energies and Occupations

         #    Occupation            Energy/Eh            Energy/eV
      -------------------------------------------------------------
         1        2.0000           -0.8976941             -24.4275
       ...           ...                  ...                  ...
        16        2.0000           -0.6113590             -16.6359
        17        2.0000           -0.6050523             -16.4643
        18        2.0000           -0.5814611             -15.8224
        19        2.0000           -0.5812474             -15.8165
        20        2.0000           -0.5590550             -15.2127
        21        2.0000           -0.5582794             -15.1916
        22        2.0000           -0.5496153             -14.9558
        23        2.0000           -0.5332501             -14.5105
        24        2.0000           -0.5271119             -14.3434
        25        2.0000           -0.5084126             -13.8346
        26        2.0000           -0.5048106             -13.7366
        27        2.0000           -0.4953682             -13.4797
        28        2.0000           -0.4876231             -13.2689 (HOMO)
        29                         -0.2677032              -7.2846 (LUMO)
        30                         -0.1643932              -4.4734
        31                         -0.1056973              -2.8762
        32                         -0.1038782              -2.8267
        33                         -0.0613086              -1.6683
        34                         -0.0437730              -1.1911
        35                         -0.0181921              -0.4950
        36                         -0.0067228              -0.1829
        37                          0.0069136               0.1881
        38                          0.0260300               0.7083
        39                          0.0295043               0.8029
       ...                                ...                  ...
        56                          0.2445334               6.6541
      -------------------------------------------------------------
                  HL-Gap            0.2199198 Eh            5.9843 eV

     #   Z          covCN         q      C6AA      α(0)
     1   7 N        3.482    -0.128    23.767     7.241
     2   6 C        3.731    -0.034    21.273     6.584
     3   6 C        3.803    -0.081    22.043     6.684
     4   6 C        3.804    -0.067    21.775     6.643
     5   6 C        3.803    -0.064    21.718     6.635
     6   6 C        3.803    -0.063    21.702     6.632
     7   6 C        3.803    -0.062    21.682     6.629
     8   6 C        3.801    -0.055    21.556     6.610
     9   6 C        3.752    -0.106    22.582     6.777
    10   1 H        0.859     0.270     0.811     1.411
    11   1 H        0.859     0.272     0.802     1.403
    12   1 H        0.859     0.272     0.802     1.403
    13   1 H        0.924     0.107     1.724     2.053
    14   1 H        0.924     0.107     1.724     2.053
    15   1 H        0.924     0.062     2.178     2.308
    16   1 H        0.924     0.062     2.178     2.308
    17   1 H        0.924     0.050     2.320     2.382
    18   1 H        0.924     0.050     2.320     2.382
    19   1 H        0.924     0.041     2.438     2.442
    20   1 H        0.924     0.041     2.438     2.442
    21   1 H        0.924     0.037     2.493     2.469
    22   1 H        0.924     0.037     2.492     2.469
    23   1 H        0.924     0.035     2.520     2.482
    24   1 H        0.924     0.035     2.520     2.482
    25   1 H        0.924     0.033     2.550     2.497
    26   1 H        0.924     0.033     2.550     2.497
    27   1 H        0.925     0.037     2.488     2.466
    28   1 H        0.925     0.042     2.427     2.436
    29   1 H        0.925     0.037     2.488     2.466

Wiberg/Mayer (AO) data.
largest (>0.10) Wiberg bond orders for each atom

     #   Z sym  total        # sym  WBO       # sym  WBO       # sym  WBO
 ---------------------------------------------------------------------------
     1   7 N    3.675 --     2 C    0.919    10 H    0.913    11 H    0.910
                            12 H    0.910
     2   6 C    3.883 --     3 C    1.008    14 H    0.967    13 H    0.967
                             1 N    0.919
     3   6 C    3.979 --     2 C    1.008     4 C    0.993    15 H    0.972
                            16 H    0.972
     4   6 C    3.987 --     5 C    1.004     3 C    0.993    18 H    0.976
                            17 H    0.976
     5   6 C    3.993 --     6 C    1.005     4 C    1.004    19 H    0.977
                            20 H    0.977
     6   6 C    3.995 --     7 C    1.006     5 C    1.005    21 H    0.977
                            22 H    0.977
     7   6 C    3.996 --     8 C    1.007     6 C    1.006    24 H    0.977
                            23 H    0.977
     8   6 C    3.997 --     9 C    1.019     7 C    1.007    26 H    0.978
                            25 H    0.978
     9   6 C    3.996 --     8 C    1.019    29 H    0.988    27 H    0.988
                            28 H    0.987
    10   1 H    0.927 --     1 N    0.913
    11   1 H    0.926 --     1 N    0.910
    12   1 H    0.926 --     1 N    0.910
    13   1 H    0.989 --     2 C    0.967
    14   1 H    0.989 --     2 C    0.967
    15   1 H    0.996 --     3 C    0.972
    16   1 H    0.996 --     3 C    0.972
    17   1 H    0.997 --     4 C    0.976
    18   1 H    0.997 --     4 C    0.976
    19   1 H    0.998 --     5 C    0.977
    20   1 H    0.998 --     5 C    0.977
    21   1 H    0.999 --     6 C    0.977
    22   1 H    0.999 --     6 C    0.977
    23   1 H    0.999 --     7 C    0.977
    24   1 H    0.999 --     7 C    0.977
    25   1 H    0.999 --     8 C    0.978
    26   1 H    0.999 --     8 C    0.978
    27   1 H    0.999 --     9 C    0.988
    28   1 H    0.998 --     9 C    0.987
    29   1 H    0.999 --     9 C    0.988
 ---------------------------------------------------------------------------

molecular dipole:
                 x           y           z       tot (Debye)
 q only:        3.069       0.357       0.304
   full:        2.710       0.273       0.200       6.941

           -------------------------------------------------
          | TOTAL ENERGY              -29.826725531940 Eh   |
          | GRADIENT NORM               0.000486646154 Eh/α |
          | HOMO-LUMO GAP               5.984323478043 eV   |
           -------------------------------------------------

 * finished run on 2023/01/23 at 20:19:16.695
