   * xtb version 6.5.1 (fef0646) compiled by 'conda@b96dff2e9fd6' on 2023-01-04
          program call               : xtb init.xyz --opt -c 0 -u 0 -P 16 --input xtb.inp

   ID    Z sym.   atoms
    1    7 N      1
    2    6 C      2-5
    3   17 Cl     6
    4    1 H      7-16

          :  Hamiltonian                  GFN2-xTB          :
 * total energy  :   -21.0733161 Eh     change       -0.8593730E-09 Eh
 * total energy  :   -21.0802036 Eh     change       -0.6887438E-02 Eh
 * total energy  :   -21.0847982 Eh     change       -0.4594656E-02 Eh
 * total energy  :   -21.0877968 Eh     change       -0.2998534E-02 Eh
 * total energy  :   -21.0904022 Eh     change       -0.2605435E-02 Eh
 * total energy  :   -21.0920475 Eh     change       -0.1645314E-02 Eh
 * total energy  :   -21.0924542 Eh     change       -0.4066691E-03 Eh
 * total energy  :   -21.0927818 Eh     change       -0.3276154E-03 Eh
 * total energy  :   -21.0928607 Eh     change       -0.7887357E-04 Eh
 * total energy  :   -21.0929176 Eh     change       -0.5694421E-04 Eh
 * total energy  :   -21.0930049 Eh     change       -0.8732585E-04 Eh
 * total energy  :   -21.0930732 Eh     change       -0.6821912E-04 Eh
 * total energy  :   -21.0931212 Eh     change       -0.4803981E-04 Eh
 * total energy  :   -21.0931326 Eh     change       -0.1137432E-04 Eh
 * total energy  :   -21.0931469 Eh     change       -0.1434911E-04 Eh
 * total energy  :   -21.0931619 Eh     change       -0.1496152E-04 Eh
 * total energy  :   -21.0931885 Eh     change       -0.2660002E-04 Eh
 * total energy  :   -21.0931935 Eh     change       -0.5049813E-05 Eh
 * total energy  :   -21.0931962 Eh     change       -0.2640235E-05 Eh
   *** GEOMETRY OPTIMIZATION CONVERGED AFTER 19 ITERATIONS ***

 final structure:
================
16
 xtb: 6.5.1 (fef0646)
N            1.05311602974827        0.22748680429181        0.39816434176245
C            2.50068979092434        0.42991175334236        0.43505865582282
C            2.95902656334707        1.16022483258240       -0.82897103607085
C            4.45017980244798        1.26063217551499       -0.88045802459608
C            5.12352259167535        2.39463690571949       -0.91346131745169
Cl           0.34742564414216       -1.35038195460603       -1.97264044835028
H            0.72944898046130       -0.26682142901589        1.22187555014523
H            0.68179193434247       -0.61328431158412       -0.86271307446135
H            0.56711563783397        1.11634112200991        0.33748832201545
H            2.96900559823021       -0.55616637328582        0.47814503550291
H            2.81789599803030        0.99925059722236        1.32050358173633
H            2.51603889773056        2.15766893237435       -0.85910880009741
H            2.60139480913289        0.59756258360684       -1.69390310917844
H            4.97329976260601        0.31348528081630       -0.88602296478674
H            4.62525243689918        3.35067232567694       -0.91186610185667
H            6.19888552244807        2.42022075533371       -0.95477061013504

          :  Hamiltonian                  GFN2-xTB          :
         :: total energy             -21.093196168682 Eh    ::
         :: gradient norm              0.000469505396 Eh/a0 ::
         :: HOMO-LUMO gap              5.041514550275 eV    ::
         :: SCC energy               -21.346479261325 Eh    ::
         :: -> dispersion             -0.008991493864 Eh    ::
         :: repulsion energy           0.253272798840 Eh    ::

    * Orbital Energies and Occupations

         #    Occupation            Energy/Eh            Energy/eV
      -------------------------------------------------------------
         1        2.0000           -1.0181498             -27.7053
       ...           ...                  ...                  ...
         7        2.0000           -0.5517507             -15.0139
         8        2.0000           -0.5438149             -14.7980
         9        2.0000           -0.5255584             -14.3012
        10        2.0000           -0.5050270             -13.7425
        11        2.0000           -0.4934688             -13.4280
        12        2.0000           -0.4815331             -13.1032
        13        2.0000           -0.4720757             -12.8458
        14        2.0000           -0.4496495             -12.2356
        15        2.0000           -0.4379618             -11.9175
        16        2.0000           -0.4113116             -11.1924
        17        2.0000           -0.3999357             -10.8828
        18        2.0000           -0.3951007             -10.7512
        19        2.0000           -0.3948772             -10.7452 (HOMO)
        20                         -0.2096049              -5.7036 (LUMO)
        21                         -0.0575399              -1.5657
        22                          0.0155320               0.4226
        23                          0.0659779               1.7953
        24                          0.0664688               1.8087
        25                          0.0719479               1.9578
        26                          0.0721708               1.9639
        27                          0.0894635               2.4344
        28                          0.1002497               2.7279
        29                          0.1166719               3.1748
        30                          0.1258009               3.4232
       ...                                ...                  ...
        39                          0.6185571              16.8318
      -------------------------------------------------------------
                  HL-Gap            0.1852723 Eh            5.0415 eV

     #   Z          covCN         q      C6AA      α(0)
     1   7 N        2.694    -0.305    27.851     7.838
     2   6 C        3.733     0.011    20.488     6.460
     3   6 C        3.808    -0.075    21.919     6.665
     4   6 C        2.888    -0.028    28.705     8.784
     5   6 C        2.837    -0.094    30.352     9.028
     6  17 Cl       0.837    -0.486   115.174    16.418
     7   1 H        0.860     0.166     1.296     1.784
     8   1 H        0.900     0.332     0.622     1.233
     9   1 H        0.860     0.168     1.286     1.777
    10   1 H        0.924     0.054     2.272     2.357
    11   1 H        0.923     0.025     2.654     2.548
    12   1 H        0.924     0.044     2.391     2.418
    13   1 H        0.924     0.073     2.057     2.243
    14   1 H        0.925     0.037     2.490     2.467
    15   1 H        0.926     0.039     2.466     2.456
    16   1 H        0.926     0.039     2.456     2.451

Wiberg/Mayer (AO) data.
largest (>0.10) Wiberg bond orders for each atom

     #   Z sym  total        # sym  WBO       # sym  WBO       # sym  WBO
 ---------------------------------------------------------------------------
     1   7 N    3.239 --     2 C    1.005     7 H    0.959     9 H    0.958
                             8 H    0.207
     2   6 C    3.974 --     1 N    1.005     3 C    0.992    10 H    0.974
                            11 H    0.974
     3   6 C    3.994 --     4 C    1.025     2 C    0.992    12 H    0.974
                            13 H    0.956
     4   6 C    3.991 --     5 C    1.981     3 C    1.025    14 H    0.966
     5   6 C    3.991 --     4 C    1.981    16 H    0.977    15 H    0.975
     6  17 Cl   0.767 --     8 H    0.678
     7   1 H    0.972 --     1 N    0.959
     8   1 H    0.890 --     6 Cl   0.678     1 N    0.207
     9   1 H    0.972 --     1 N    0.958
    10   1 H    0.997 --     2 C    0.974
    11   1 H    0.999 --     2 C    0.974
    12   1 H    0.998 --     3 C    0.974
    13   1 H    0.995 --     3 C    0.956
    14   1 H    0.999 --     4 C    0.966
    15   1 H    0.998 --     5 C    0.975
    16   1 H    0.998 --     5 C    0.977
 ---------------------------------------------------------------------------

molecular dipole:
                 x           y           z       tot (Debye)
 q only:        0.548       1.048       1.474
   full:        0.367       0.957       1.455       4.525

           -------------------------------------------------
          | TOTAL ENERGY              -21.093196168682 Eh   |
          | GRADIENT NORM               0.000469505396 Eh/α |
          | HOMO-LUMO GAP               5.041514550275 eV   |
           -------------------------------------------------

 * finished run on 2023/01/23 at 19:51:27.835
