   * xtb version 6.5.1 (fef0646) compiled by 'conda@b96dff2e9fd6' on 2023-01-04
          program call               : xtb init.xyz --opt -c 1 -u 0 -P 16 --alpb water

   ID    Z sym.   atoms
    1    7 N      1
    2    6 C      2-6
    3    8 O      7, 8
    4    1 H      9-20

      * Solvation model:               ALPB
        Solvent                        water
        Solvent mass                       1.8000E+01 g/mol
          :  Hamiltonian                  GFN2-xTB          :
 * total energy  :   -27.5662941 Eh     change       -0.5930190E-10 Eh
 * total energy  :   -27.5684754 Eh     change       -0.2181224E-02 Eh
 * total energy  :   -27.5688326 Eh     change       -0.3572013E-03 Eh
 * total energy  :   -27.5689697 Eh     change       -0.1371140E-03 Eh
 * total energy  :   -27.5690444 Eh     change       -0.7475696E-04 Eh
 * total energy  :   -27.5691471 Eh     change       -0.1026400E-03 Eh
 * total energy  :   -27.5692250 Eh     change       -0.7788067E-04 Eh
 * total energy  :   -27.5692993 Eh     change       -0.7439459E-04 Eh
 * total energy  :   -27.5693386 Eh     change       -0.3928173E-04 Eh
 * total energy  :   -27.5693758 Eh     change       -0.3718377E-04 Eh
 * total energy  :   -27.5695773 Eh     change       -0.7594303E-05 Eh
 * total energy  :   -27.5695875 Eh     change       -0.1022699E-04 Eh
 * total energy  :   -27.5696004 Eh     change       -0.1287309E-04 Eh
 * total energy  :   -27.5696121 Eh     change       -0.1168984E-04 Eh
 * total energy  :   -27.5696211 Eh     change       -0.9028553E-05 Eh
 * total energy  :   -27.5696286 Eh     change       -0.7514642E-05 Eh
 * total energy  :   -27.5696338 Eh     change       -0.5128950E-05 Eh
 * total energy  :   -27.5696395 Eh     change       -0.5779831E-05 Eh
 * total energy  :   -27.5696435 Eh     change       -0.3965264E-05 Eh
   *** GEOMETRY OPTIMIZATION CONVERGED AFTER 26 ITERATIONS ***

 final structure:
================
20
 xtb: 6.5.1 (fef0646)
N            0.81683822173325       -0.03510275910200       -0.02342737835862
C            2.28378742499269        0.18608923741897       -0.02826783635792
C            2.90629583358038       -0.36664345945016        1.25144740878390
C            4.43366858167423       -0.36499920817588        1.19868962294680
C            5.03693294910337        1.04000032666898        1.17410799711863
C            6.54065711325077        0.99135889050835        1.29741636679378
O            7.16823360702105        2.16949994921405        1.30401905441385
O            7.18036557105204       -0.03163732558450        1.38568009128093
H            0.38810330181711        0.34083963188348       -0.87688833187015
H            0.39279029378303        0.42602027754283        0.79013392872599
H            0.60983066462901       -1.03951070041224        0.03247892297194
H            2.47467962690972        1.25467724423435       -0.11347102740276
H            2.71862454391912       -0.31774818298027       -0.89151278445108
H            2.58761827246884       -1.39932187539011        1.39600877484297
H            2.58171256365471        0.21391313000735        2.11550292093502
H            4.78567218025415       -0.91669417035680        0.32573379346677
H            4.82618894656455       -0.88560726022923        2.07391689814817
H            4.65018879503751        1.63072643373789        2.00797308899462
H            4.79996109661205        1.55238385476327        0.24000051125907
H            6.57537041194243        2.93966596570169        1.23026797775804

          :  Hamiltonian                  GFN2-xTB          :
         :: total energy             -27.569643496743 Eh    ::
         :: gradient norm              0.000355744890 Eh/a0 ::
         :: HOMO-LUMO gap              5.028395914168 eV    ::
         :: SCC energy               -27.882656766932 Eh    ::
         :: -> dispersion             -0.010546944142 Eh    ::
         :: -> Gsolv                  -0.147687259828 Eh    ::
         :: repulsion energy           0.313018437754 Eh    ::

    * Orbital Energies and Occupations

         #    Occupation            Energy/Eh            Energy/eV
      -------------------------------------------------------------
         1        2.0000           -0.7443520             -20.2548
       ...           ...                  ...                  ...
        12        2.0000           -0.5682954             -15.4641
        13        2.0000           -0.5540690             -15.0770
        14        2.0000           -0.5483883             -14.9224
        15        2.0000           -0.5170623             -14.0700
        16        2.0000           -0.5089830             -13.8501
        17        2.0000           -0.5029900             -13.6871
        18        2.0000           -0.4871919             -13.2572
        19        2.0000           -0.4760598             -12.9542
        20        2.0000           -0.4683746             -12.7451
        21        2.0000           -0.4655666             -12.6687
        22        2.0000           -0.4406302             -11.9902
        23        2.0000           -0.4380332             -11.9195
        24        2.0000           -0.4219489             -11.4818 (HOMO)
        25                         -0.2371587              -6.4534 (LUMO)
        26                         -0.0530512              -1.4436
        27                          0.0497560               1.3539
        28                          0.0503929               1.3713
        29                          0.0781645               2.1270
        30                          0.0825694               2.2468
        31                          0.1005535               2.7362
        32                          0.1264749               3.4416
        33                          0.1327601               3.6126
        34                          0.1499573               4.0805
        35                          0.1535101               4.1772
       ...                                ...                  ...
        44                          0.6033765              16.4187
      -------------------------------------------------------------
                  HL-Gap            0.1847901 Eh            5.0284 eV

     #   Z          covCN         q      C6AA      α(0)
     1   7 N        3.485    -0.163    24.504     7.352
     2   6 C        3.732    -0.040    21.381     6.600
     3   6 C        3.802    -0.089    22.199     6.708
     4   6 C        3.804    -0.067    21.774     6.643
     5   6 C        3.802    -0.120    22.790     6.797
     6   6 C        2.689     0.369    20.744     7.454
     7   8 O        1.659    -0.440    21.632     6.279
     8   8 O        0.856    -0.475    23.241     6.464
     9   1 H        0.859     0.317     0.665     1.278
    10   1 H        0.859     0.311     0.683     1.294
    11   1 H        0.859     0.307     0.692     1.303
    12   1 H        0.925     0.111     1.685     2.030
    13   1 H        0.925     0.109     1.704     2.041
    14   1 H        0.924     0.076     2.024     2.225
    15   1 H        0.924     0.074     2.037     2.232
    16   1 H        0.924     0.055     2.262     2.352
    17   1 H        0.924     0.050     2.315     2.379
    18   1 H        0.924     0.098     1.808     2.103
    19   1 H        0.924     0.099     1.795     2.095
    20   1 H        0.804     0.417     0.455     1.060

Wiberg/Mayer (AO) data.
largest (>0.10) Wiberg bond orders for each atom

     #   Z sym  total        # sym  WBO       # sym  WBO       # sym  WBO
 ---------------------------------------------------------------------------
     1   7 N    3.652 --     2 C    0.967    11 H    0.890    10 H    0.889
                             9 H    0.886
     2   6 C    3.926 --     3 C    1.010     1 N    0.967    13 H    0.966
                            12 H    0.965
     3   6 C    3.989 --     2 C    1.010     4 C    1.006    15 H    0.972
                            14 H    0.970
     4   6 C    3.990 --     5 C    1.006     3 C    1.006    16 H    0.975
                            17 H    0.974
     5   6 C    3.989 --     4 C    1.006     6 C    0.983    18 H    0.945
                            19 H    0.944
     6   6 C    3.892 --     8 O    1.722     7 O    1.149     5 C    0.983
     7   8 O    2.161 --     6 C    1.149    20 H    0.805     8 O    0.156
     8   8 O    1.992 --     6 C    1.722     7 O    0.156
     9   1 H    0.899 --     1 N    0.886
    10   1 H    0.904 --     1 N    0.889
    11   1 H    0.906 --     1 N    0.890
    12   1 H    0.988 --     2 C    0.965
    13   1 H    0.988 --     2 C    0.966
    14   1 H    0.994 --     3 C    0.970
    15   1 H    0.994 --     3 C    0.972
    16   1 H    0.997 --     4 C    0.975
    17   1 H    0.997 --     4 C    0.974
    18   1 H    0.990 --     5 C    0.945
    19   1 H    0.990 --     5 C    0.944
    20   1 H    0.826 --     7 O    0.805
 ---------------------------------------------------------------------------

molecular dipole:
                 x           y           z       tot (Debye)
 q only:        0.067       1.391      -0.179
   full:       -0.090       1.532      -0.176       3.927

           -------------------------------------------------
          | TOTAL ENERGY              -27.569643496743 Eh   |
          | GRADIENT NORM               0.000355744890 Eh/α |
          | HOMO-LUMO GAP               5.028395914168 eV   |
           -------------------------------------------------

 * finished run on 2023/01/24 at 14:57:50.103
