   * xtb version 6.5.1 (fef0646) compiled by 'conda@b96dff2e9fd6' on 2023-01-04
          program call               : xtb init.xyz --opt -c 1 -u 0 -P 16 --alpb water

   ID    Z sym.   atoms
    1    7 N      1
    2    6 C      2-21
    3   16 S      22-25
    4    1 H      26-45

      * Solvation model:               ALPB
        Solvent                        water
        Solvent mass                       1.8000E+01 g/mol
          :  Hamiltonian                  GFN2-xTB          :
 * total energy  :   -68.5883090 Eh     change       -0.1030173E-08 Eh
 * total energy  :   -68.5959246 Eh     change       -0.7615587E-02 Eh
 * total energy  :   -68.5983242 Eh     change       -0.2399633E-02 Eh
 * total energy  :   -68.5989249 Eh     change       -0.6006405E-03 Eh
 * total energy  :   -68.5995626 Eh     change       -0.6377000E-03 Eh
 * total energy  :   -68.6000472 Eh     change       -0.4846618E-03 Eh
 * total energy  :   -68.6005931 Eh     change       -0.5458448E-03 Eh
 * total energy  :   -68.6011160 Eh     change       -0.5228880E-03 Eh
 * total energy  :   -68.6014842 Eh     change       -0.3682520E-03 Eh
 * total energy  :   -68.6017949 Eh     change       -0.3106640E-03 Eh
 * total energy  :   -68.6051687 Eh     change       -0.2391686E-04 Eh
 * total energy  :   -68.6051844 Eh     change       -0.1569845E-04 Eh
 * total energy  :   -68.6051971 Eh     change       -0.1272059E-04 Eh
 * total energy  :   -68.6052081 Eh     change       -0.1106365E-04 Eh
 * total energy  :   -68.6052202 Eh     change       -0.1209202E-04 Eh
 * total energy  :   -68.6052327 Eh     change       -0.1251551E-04 Eh
 * total energy  :   -68.6052453 Eh     change       -0.1254485E-04 Eh
 * total energy  :   -68.6052540 Eh     change       -0.8723585E-05 Eh
 * total energy  :   -68.6052585 Eh     change       -0.4453753E-05 Eh
   *** GEOMETRY OPTIMIZATION CONVERGED AFTER 44 ITERATIONS ***

 final structure:
================
45
 xtb: 6.5.1 (fef0646)
N            3.31310558829406       -0.96305901317117        0.91975351469785
C            2.67188979972868        0.21627844997211        0.29881967587114
C            3.58129352634712        1.44358643651560        0.40097998279119
C            4.77118333518488        1.35291646464736       -0.49427006580406
C            5.04504246977296        2.07685259339219       -1.61473551551793
C            6.26112580402307        1.72493760968377       -2.23068942545276
C            6.93436190630877        0.72031510566929       -1.58530017358552
C            8.17222174777788        0.10356357570724       -1.92040655853011
C            8.82889243222822       -0.90536672964186       -1.26134411706054
C           10.03826616342810       -1.29456609254346       -1.86099331791211
C           10.90790642132522       -2.37142208952318       -1.31085459058552
C           10.31483313005435       -0.56889380901506       -3.00490157850619
C           11.41257624287378       -0.65109517948850       -3.90490216936158
C           11.62676530596767        0.12097377063964       -5.02539220919174
C           12.79220720291513       -0.20509024918768       -5.72443794439759
C           13.50234321022531       -1.23764209463416       -5.15646073282272
C           14.71572317792489       -1.86904223018757       -5.56961403852623
C           15.64211435256309       -1.49583459829244       -6.52059009276433
C           15.58521436940458       -0.26337753812089       -7.36070613900521
C           16.70578422627717       -2.42417831616806       -6.61420612239801
C           16.59720776298582       -3.47212064142302       -5.75939150584537
S           15.18100274545366       -3.36690081013035       -4.79674154221402
S           12.70122894023109       -1.81020825629014       -3.72046489494725
S            9.06425688044854        0.60624810949824       -3.33298168887127
S            6.05645745782421        0.21192967513662       -0.18333567345798
H            2.73055431432469       -1.79951527845792        0.80884008784222
H            3.47467373778796       -0.79674325974931        1.91929118586482
H            4.23042406072723       -1.12987903089067        0.48008350251893
H            1.73332826584383        0.42671523501308        0.80955092676505
H            2.46370273773407        0.00389712021557       -0.74921502530799
H            3.90997398903873        1.57352752679985        1.43268602337203
H            3.01258446176299        2.32770901682285        0.11586463978200
H            4.40073202192992        2.84773253114530       -1.99715046328313
H            6.64740443682269        2.18626328702078       -3.12276032127860
H            8.45206674603017       -1.35933935990781       -0.36131993401883
H           10.48633483649641       -2.75816574359693       -0.38806969189791
H           11.90989935369242       -1.99269932562071       -1.11139676250218
H           11.00630344072159       -3.18791223354592       -2.02578442517778
H           10.95106999634278        0.90093574040094       -5.33231267349812
H           13.08474374649187        0.29290972448157       -6.62811902986105
H           15.39279371879599        0.61405862193964       -6.74588441593549
H           14.79527949941493       -0.34299906305763       -8.10714544433484
H           16.53112198259605       -0.12878306239440       -7.87814830463209
H           17.52527090488959       -2.30544053797226       -7.30039167115528
H           17.25902354899281       -4.30409605168583       -5.62939127985889

          :  Hamiltonian                  GFN2-xTB          :
         :: total energy             -68.605258472872 Eh    ::
         :: gradient norm              0.000423461070 Eh/a0 ::
         :: HOMO-LUMO gap              1.775773156706 eV    ::
         :: SCC energy               -69.635978878504 Eh    ::
         :: -> dispersion             -0.055792412213 Eh    ::
         :: -> Gsolv                  -0.122484483284 Eh    ::
         :: repulsion energy           1.031390830284 Eh    ::

    * Orbital Energies and Occupations

         #    Occupation            Energy/Eh            Energy/eV
      -------------------------------------------------------------
         1        2.0000           -0.7406553             -20.1543
       ...           ...                  ...                  ...
        52        2.0000           -0.4500256             -12.2458
        53        2.0000           -0.4486005             -12.2070
        54        2.0000           -0.4469829             -12.1630
        55        2.0000           -0.4438710             -12.0783
        56        2.0000           -0.4405909             -11.9891
        57        2.0000           -0.4370040             -11.8915
        58        2.0000           -0.4104560             -11.1691
        59        2.0000           -0.4027096             -10.9583
        60        2.0000           -0.4018791             -10.9357
        61        2.0000           -0.3977520             -10.8234
        62        2.0000           -0.3952369             -10.7549
        63        2.0000           -0.3816885             -10.3863
        64        2.0000           -0.3551220              -9.6634 (HOMO)
        65                         -0.2898635              -7.8876 (LUMO)
        66                         -0.2628489              -7.1525
        67                         -0.2334687              -6.3530
        68                         -0.2252566              -6.1295
        69                         -0.2217533              -6.0342
        70                         -0.2090063              -5.6874
        71                         -0.2064886              -5.6188
        72                         -0.1873969              -5.0993
        73                         -0.1845085              -5.0207
        74                         -0.1659859              -4.5167
        75                         -0.1537776              -4.1845
       ...                                ...                  ...
       140                          0.7000606              19.0496
      -------------------------------------------------------------
                  HL-Gap            0.0652585 Eh            1.7758 eV

     #   Z          covCN         q      C6AA      α(0)
     1   7 N        3.485    -0.163    24.520     7.354
     2   6 C        3.732    -0.041    21.403     6.603
     3   6 C        3.822    -0.096    22.304     6.721
     4   6 C        2.983     0.025    27.430     8.591
     5   6 C        3.110    -0.059    29.315     8.870
     6   6 C        3.121    -0.053    29.130     8.839
     7   6 C        3.018     0.009    27.801     8.649
     8   6 C        3.022     0.021    27.515     8.604
     9   6 C        3.100    -0.065    29.491     8.899
    10   6 C        3.121     0.001    27.820     8.638
    11   6 C        3.756    -0.121    22.880     6.820
    12   6 C        3.018     0.008    27.822     8.652
    13   6 C        3.030     0.018    27.581     8.614
    14   6 C        3.107    -0.057    29.272     8.865
    15   6 C        3.099    -0.058    29.319     8.874
    16   6 C        3.028     0.016    27.634     8.623
    17   6 C        3.034     0.005    27.887     8.662
    18   6 C        3.133    -0.005    27.937     8.652
    19   6 C        3.755    -0.114    22.740     6.799
    20   6 C        3.123    -0.056    29.207     8.850
    21   6 C        2.929    -0.025    28.631     8.775
    22  16 S        2.392    -0.060   143.529    20.164
    23  16 S        2.422    -0.055   143.330    20.150
    24  16 S        2.339    -0.099   145.175    20.279
    25  16 S        2.377    -0.030   142.282    20.076
    26   1 H        0.859     0.321     0.654     1.267
    27   1 H        0.859     0.315     0.670     1.283
    28   1 H        0.859     0.303     0.703     1.314
    29   1 H        0.925     0.126     1.569     1.959
    30   1 H        0.925     0.116     1.648     2.008
    31   1 H        0.924     0.106     1.734     2.059
    32   1 H        0.925     0.094     1.839     2.121
    33   1 H        0.926     0.049     2.338     2.391
    34   1 H        0.926     0.023     2.693     2.566
    35   1 H        0.926     0.065     2.138     2.287
    36   1 H        0.925     0.070     2.087     2.259
    37   1 H        0.925     0.058     2.225     2.333
    38   1 H        0.925     0.062     2.180     2.309
    39   1 H        0.926     0.039     2.465     2.455
    40   1 H        0.926     0.045     2.387     2.416
    41   1 H        0.925     0.054     2.271     2.357
    42   1 H        0.925     0.056     2.248     2.345
    43   1 H        0.925     0.057     2.239     2.340
    44   1 H        0.926     0.045     2.380     2.413
    45   1 H        0.927     0.055     2.261     2.351

Wiberg/Mayer (AO) data.
largest (>0.10) Wiberg bond orders for each atom

     #   Z sym  total        # sym  WBO       # sym  WBO       # sym  WBO
 ---------------------------------------------------------------------------
     1   7 N    3.649 --     2 C    0.973    27 H    0.886    26 H    0.883
                            28 H    0.874
     2   6 C    3.926 --     3 C    0.994     1 N    0.973    30 H    0.965
                            29 H    0.961
     3   6 C    3.983 --     4 C    1.026     2 C    0.994    32 H    0.959
                            31 H    0.952
     4   6 C    3.920 --     5 C    1.580    25 S    1.142     3 C    1.026
     5   6 C    3.985 --     4 C    1.580     6 C    1.297    33 H    0.962
     6   6 C    3.970 --     7 C    1.512     5 C    1.297    34 H    0.961
     7   6 C    3.955 --     6 C    1.512     8 C    1.165    25 S    1.107
     8   6 C    3.921 --     9 C    1.485     7 C    1.165    24 S    1.107
     9   6 C    3.979 --     8 C    1.485    10 C    1.307    35 H    0.958
    10   6 C    3.971 --    12 C    1.441     9 C    1.307    11 C    1.030
    11   6 C    3.992 --    10 C    1.030    36 H    0.979    37 H    0.962
                            38 H    0.961
    12   6 C    3.930 --    10 C    1.441    13 C    1.183    24 S    1.102
    13   6 C    3.936 --    14 C    1.463    12 C    1.183    23 S    1.118
    14   6 C    3.970 --    13 C    1.463    15 C    1.345    39 H    0.961
    15   6 C    3.984 --    16 C    1.472    14 C    1.345    40 H    0.960
    16   6 C    3.931 --    15 C    1.472    17 C    1.161    23 S    1.126
    17   6 C    3.944 --    18 C    1.474    16 C    1.161    22 S    1.118
    18   6 C    3.968 --    17 C    1.474    20 C    1.269    19 C    1.026
    19   6 C    3.995 --    18 C    1.026    43 H    0.982    41 H    0.971
                            42 H    0.965
    20   6 C    3.985 --    21 C    1.611    18 C    1.269    44 H    0.963
    21   6 C    3.924 --    20 C    1.611    22 S    1.187    45 H    0.969
    22  16 S    2.593 --    21 C    1.187    17 C    1.118
    23  16 S    2.587 --    16 C    1.126    13 C    1.118
    24  16 S    2.536 --     8 C    1.107    12 C    1.102
    25  16 S    2.569 --     4 C    1.142     7 C    1.107
    26   1 H    0.897 --     1 N    0.883
    27   1 H    0.901 --     1 N    0.886
    28   1 H    0.908 --     1 N    0.874
    29   1 H    0.983 --     2 C    0.961
    30   1 H    0.987 --     2 C    0.965
    31   1 H    0.987 --     3 C    0.952
    32   1 H    0.991 --     3 C    0.959
    33   1 H    0.997 --     5 C    0.962
    34   1 H    0.999 --     6 C    0.961
    35   1 H    0.995 --     9 C    0.958
    36   1 H    0.994 --    11 C    0.979
    37   1 H    0.996 --    11 C    0.962
    38   1 H    0.995 --    11 C    0.961
    39   1 H    0.998 --    14 C    0.961
    40   1 H    0.998 --    15 C    0.960
    41   1 H    0.996 --    19 C    0.971
    42   1 H    0.995 --    19 C    0.965
    43   1 H    0.996 --    19 C    0.982
    44   1 H    0.997 --    20 C    0.963
    45   1 H    0.996 --    21 C    0.969
 ---------------------------------------------------------------------------

molecular dipole:
                 x           y           z       tot (Debye)
 q only:        5.486      -1.476       2.268
   full:        6.678      -1.095       1.204      17.470

           -------------------------------------------------
          | TOTAL ENERGY              -68.605258472872 Eh   |
          | GRADIENT NORM               0.000423461070 Eh/α |
          | HOMO-LUMO GAP               1.775773156706 eV   |
           -------------------------------------------------

 * finished run on 2023/01/24 at 14:57:20.988
