   * xtb version 6.5.1 (fef0646) compiled by 'conda@b96dff2e9fd6' on 2023-01-04
          program call               : xtb init.xyz --opt -c 0 -u 0 -P 16 --input xtb.inp

   ID    Z sym.   atoms
    1    7 N      1
    2    6 C      2-4
    3   17 Cl     5
    4    1 H      6-13

          :  Hamiltonian                  GFN2-xTB          :
 * total energy  :   -17.9132383 Eh     change       -0.6295409E-11 Eh
 * total energy  :   -17.9188688 Eh     change       -0.5630509E-02 Eh
 * total energy  :   -17.9256875 Eh     change       -0.6818643E-02 Eh
 * total energy  :   -17.9298556 Eh     change       -0.4168089E-02 Eh
 * total energy  :   -17.9325711 Eh     change       -0.2715590E-02 Eh
 * total energy  :   -17.9347272 Eh     change       -0.2156083E-02 Eh
 * total energy  :   -17.9357898 Eh     change       -0.1062541E-02 Eh
 * total energy  :   -17.9363687 Eh     change       -0.5788992E-03 Eh
 * total energy  :   -17.9365337 Eh     change       -0.1650176E-03 Eh
 * total energy  :   -17.9366376 Eh     change       -0.1038796E-03 Eh
 * total energy  :   -17.9384080 Eh     change       -0.5825923E-04 Eh
 * total energy  :   -17.9384600 Eh     change       -0.5195120E-04 Eh
 * total energy  :   -17.9384854 Eh     change       -0.2536605E-04 Eh
 * total energy  :   -17.9385051 Eh     change       -0.1977461E-04 Eh
 * total energy  :   -17.9385154 Eh     change       -0.1027068E-04 Eh
 * total energy  :   -17.9385455 Eh     change       -0.3007251E-04 Eh
 * total energy  :   -17.9385537 Eh     change       -0.8249860E-05 Eh
 * total energy  :   -17.9385677 Eh     change       -0.1393422E-04 Eh
 * total energy  :   -17.9385716 Eh     change       -0.3924747E-05 Eh
   *** GEOMETRY OPTIMIZATION CONVERGED AFTER 31 ITERATIONS ***

 final structure:
================
13
 xtb: 6.5.1 (fef0646)
N            1.18530633477449        0.33093336397981       -0.19976303710555
C            2.60411831916502        0.24388968227097        0.04624924942125
C            3.57808581162145        1.15103830867675       -0.65221886442804
C            3.49201844776454       -0.30340872853909       -1.02312993935318
Cl          -0.18755202437678       -2.26444408661127        0.14074069806539
H            0.74790160270424        1.01735303020563        0.40684836433754
H            0.46928179812995       -1.08571516657639        0.00302650688790
H            1.00595988730810        0.58513910673639       -1.16593253069512
H            2.80974312474305       -0.03223135103670        1.07241358694893
H            4.44546651541847        1.49814817612241       -0.11318521830554
H            3.18667344129385        1.87344568939637       -1.35390102341339
H            4.29795393658839       -0.95893149985847       -0.73560659593723
H            3.04066280486493       -0.56148652476585       -1.96867119642278

          :  Hamiltonian                  GFN2-xTB          :
         :: total energy             -17.938571593470 Eh    ::
         :: gradient norm              0.000650328098 Eh/a0 ::
         :: HOMO-LUMO gap              8.836491630414 eV    ::
         :: SCC energy               -18.130342498494 Eh    ::
         :: -> dispersion             -0.006380344920 Eh    ::
         :: repulsion energy           0.191763123914 Eh    ::

    * Orbital Energies and Occupations

         #    Occupation            Energy/Eh            Energy/eV
      -------------------------------------------------------------
         1        2.0000           -1.0196270             -27.7455
       ...           ...                  ...                  ...
         4        2.0000           -0.5944043             -16.1746
         5        2.0000           -0.5850962             -15.9213
         6        2.0000           -0.5618962             -15.2900
         7        2.0000           -0.5389399             -14.6653
         8        2.0000           -0.5263157             -14.3218
         9        2.0000           -0.5055378             -13.7564
        10        2.0000           -0.4857955             -13.2192
        11        2.0000           -0.4643058             -12.6344
        12        2.0000           -0.4567004             -12.4275
        13        2.0000           -0.4393917             -11.9565
        14        2.0000           -0.3967197             -10.7953
        15        2.0000           -0.3966758             -10.7941
        16        2.0000           -0.3937565             -10.7147 (HOMO)
        17                         -0.0690214              -1.8782 (LUMO)
        18                         -0.0569205              -1.5489
        19                          0.0236184               0.6427
        20                          0.0634171               1.7257
        21                          0.0634714               1.7271
        22                          0.0694153               1.8889
        23                          0.0694178               1.8890
        24                          0.0809332               2.2023
        25                          0.1001509               2.7252
        26                          0.1182100               3.2167
        27                          0.1594934               4.3400
       ...                                ...                  ...
        33                          0.3341410               9.0924
      -------------------------------------------------------------
                  HL-Gap            0.3247351 Eh            8.8365 eV

     #   Z          covCN         q      C6AA      α(0)
     1   7 N        2.664    -0.309    27.944     7.851
     2   6 C        3.787     0.044    19.853     6.346
     3   6 C        3.805    -0.081    22.046     6.684
     4   6 C        3.806    -0.075    21.926     6.666
     5  17 Cl       0.839    -0.465   114.428    16.365
     6   1 H        0.860     0.167     1.292     1.781
     7   1 H        0.873     0.332     0.625     1.238
     8   1 H        0.860     0.172     1.259     1.758
     9   1 H        0.925     0.046     2.373     2.409
    10   1 H        0.926     0.040     2.453     2.449
    11   1 H        0.926     0.036     2.498     2.471
    12   1 H        0.926     0.046     2.367     2.406
    13   1 H        0.926     0.047     2.351     2.398

Wiberg/Mayer (AO) data.
largest (>0.10) Wiberg bond orders for each atom

     #   Z sym  total        # sym  WBO       # sym  WBO       # sym  WBO
 ---------------------------------------------------------------------------
     1   7 N    3.231 --     2 C    1.014     6 H    0.955     8 H    0.954
                             7 H    0.179
     2   6 C    3.931 --     1 N    1.014     4 C    0.979     9 H    0.968
                             3 C    0.963
     3   6 C    3.939 --    10 H    0.981    11 H    0.979     4 C    0.974
                             2 C    0.963
     4   6 C    3.943 --    12 H    0.980     2 C    0.979    13 H    0.978
                             3 C    0.974
     5  17 Cl   0.785 --     7 H    0.708
     6   1 H    0.972 --     1 N    0.955
     7   1 H    0.890 --     5 Cl   0.708     1 N    0.179
     8   1 H    0.970 --     1 N    0.954
     9   1 H    0.998 --     2 C    0.968
    10   1 H    0.998 --     3 C    0.981
    11   1 H    0.999 --     3 C    0.979
    12   1 H    0.998 --     4 C    0.980
    13   1 H    0.998 --     4 C    0.978
 ---------------------------------------------------------------------------

molecular dipole:
                 x           y           z       tot (Debye)
 q only:        0.948       1.620      -0.258
   full:        0.817       1.586      -0.276       4.590

           -------------------------------------------------
          | TOTAL ENERGY              -17.938571593470 Eh   |
          | GRADIENT NORM               0.000650328098 Eh/α |
          | HOMO-LUMO GAP               8.836491630414 eV   |
           -------------------------------------------------

 * finished run on 2023/01/23 at 18:40:01.482
