   * xtb version 6.5.1 (fef0646) compiled by 'conda@b96dff2e9fd6' on 2023-01-04
          program call               : xtb init.xyz --opt -c 0 -u 0 -P 16 --alpb water

   ID    Z sym.   atoms
    1    7 N      1
    2    6 C      2-4
    3   17 Cl     5
    4    1 H      6-13

      * Solvation model:               ALPB
        Solvent                        water
        Solvent mass                       1.8000E+01 g/mol
          :  Hamiltonian                  GFN2-xTB          :
 * total energy  :   -17.9676078 Eh     change       -0.2223999E-10 Eh
 * total energy  :   -17.9701774 Eh     change       -0.2569610E-02 Eh
 * total energy  :   -17.9712207 Eh     change       -0.1043255E-02 Eh
 * total energy  :   -17.9714882 Eh     change       -0.2675379E-03 Eh
 * total energy  :   -17.9715542 Eh     change       -0.6592846E-04 Eh
 * total energy  :   -17.9716485 Eh     change       -0.9437824E-04 Eh
 * total energy  :   -17.9717995 Eh     change       -0.1509609E-03 Eh
 * total energy  :   -17.9719415 Eh     change       -0.1419665E-03 Eh
 * total energy  :   -17.9721818 Eh     change       -0.2403128E-03 Eh
 * total energy  :   -17.9722303 Eh     change       -0.4849495E-04 Eh
 * total energy  :   -17.9790402 Eh     change       -0.2005501E-03 Eh
 * total energy  :   -17.9793686 Eh     change       -0.3284197E-03 Eh
 * total energy  :   -17.9794928 Eh     change       -0.1241849E-03 Eh
 * total energy  :   -17.9795906 Eh     change       -0.9783944E-04 Eh
 * total energy  :   -17.9796403 Eh     change       -0.4967636E-04 Eh
 * total energy  :   -17.9796842 Eh     change       -0.4392363E-04 Eh
 * total energy  :   -17.9797127 Eh     change       -0.2849660E-04 Eh
 * total energy  :   -17.9797278 Eh     change       -0.1500468E-04 Eh
 * total energy  :   -17.9797327 Eh     change       -0.4989194E-05 Eh
   *** GEOMETRY OPTIMIZATION CONVERGED AFTER 34 ITERATIONS ***

 final structure:
================
13
 xtb: 6.5.1 (fef0646)
N            1.55028820566554        0.07203809557890        0.41432279140151
C            2.96355614931931        0.04829348083183        0.04060705590621
C            3.35727684808245        0.71855558658607       -1.23642094070614
C            3.35431977740611       -0.77825900415617       -1.14194982048914
Cl          -0.29909080173839       -0.02617098641931       -2.01449712719627
H            1.30789626872832        0.93236215373035        0.91425391647791
H            1.30034419550892       -0.74114765234544        0.98482814214942
H            0.94531308898808        0.03895966342362       -0.44985675359891
H            3.63344628143828        0.10108462693116        0.88699763861272
H            4.29837207516300        1.24086262630318       -1.28136502396345
H            2.56886501783751        1.16920451158638       -1.81819074921794
H            4.29290150863198       -1.30700984440735       -1.12164937686672
H            2.56315138530281       -1.29411325771611       -1.66287975174610

          :  Hamiltonian                  GFN2-xTB          :
         :: total energy             -17.979732739926 Eh    ::
         :: gradient norm              0.000791974660 Eh/a0 ::
         :: HOMO-LUMO gap              9.308898492122 eV    ::
         :: SCC energy               -18.178854091041 Eh    ::
         :: -> dispersion             -0.006415015899 Eh    ::
         :: -> Gsolv                  -0.070401606549 Eh    ::
         :: repulsion energy           0.199108440944 Eh    ::

    * Orbital Energies and Occupations

         #    Occupation            Energy/Eh            Energy/eV
      -------------------------------------------------------------
         1        2.0000           -1.0077766             -27.4230
       ...           ...                  ...                  ...
         4        2.0000           -0.5986554             -16.2902
         5        2.0000           -0.5788540             -15.7514
         6        2.0000           -0.5703880             -15.5210
         7        2.0000           -0.5502371             -14.9727
         8        2.0000           -0.5310961             -14.4519
         9        2.0000           -0.5031084             -13.6903
        10        2.0000           -0.4751834             -12.9304
        11        2.0000           -0.4417938             -12.0218
        12        2.0000           -0.4279901             -11.6462
        13        2.0000           -0.4268036             -11.6139
        14        2.0000           -0.4040735             -10.9954
        15        2.0000           -0.4013782             -10.9221
        16        2.0000           -0.4013268             -10.9207 (HOMO)
        17                         -0.0592310              -1.6118 (LUMO)
        18                         -0.0220127              -0.5990
        19                          0.0747036               2.0328
        20                          0.1043000               2.8381
        21                          0.1140623               3.1038
        22                          0.1157802               3.1505
        23                          0.1177022               3.2028
        24                          0.1178350               3.2065
        25                          0.1212739               3.3000
        26                          0.1302189               3.5434
        27                          0.1783213               4.8524
       ...                                ...                  ...
        33                          0.3646985               9.9240
      -------------------------------------------------------------
                  HL-Gap            0.3420957 Eh            9.3089 eV

     #   Z          covCN         q      C6AA      α(0)
     1   7 N        3.483    -0.176    24.792     7.395
     2   6 C        3.787     0.029    20.105     6.386
     3   6 C        3.806    -0.084    22.100     6.692
     4   6 C        3.806    -0.084    22.103     6.693
     5  17 Cl       0.052    -0.946   124.835    17.004
     6   1 H        0.859     0.305     0.698     1.309
     7   1 H        0.859     0.305     0.699     1.310
     8   1 H        0.909     0.299     0.712     1.320
     9   1 H        0.926     0.099     1.798     2.097
    10   1 H        0.926     0.065     2.139     2.287
    11   1 H        0.926     0.062     2.180     2.309
    12   1 H        0.926     0.065     2.136     2.286
    13   1 H        0.926     0.062     2.179     2.308

Wiberg/Mayer (AO) data.
largest (>0.10) Wiberg bond orders for each atom

     #   Z sym  total        # sym  WBO       # sym  WBO       # sym  WBO
 ---------------------------------------------------------------------------
     1   7 N    3.640 --     2 C    0.968     7 H    0.890     6 H    0.890
                             8 H    0.825
     2   6 C    3.887 --     3 C    0.975     4 C    0.975     1 N    0.968
                             9 H    0.960
     3   6 C    3.941 --     4 C    0.986    10 H    0.977    11 H    0.976
                             2 C    0.975
     4   6 C    3.941 --     3 C    0.986    12 H    0.977    13 H    0.976
                             2 C    0.975
     5  17 Cl   0.105
     6   1 H    0.907 --     1 N    0.890
     7   1 H    0.907 --     1 N    0.890
     8   1 H    0.911 --     1 N    0.825
     9   1 H    0.990 --     2 C    0.960
    10   1 H    0.996 --     3 C    0.977
    11   1 H    0.996 --     3 C    0.976
    12   1 H    0.996 --     4 C    0.977
    13   1 H    0.996 --     4 C    0.976
 ---------------------------------------------------------------------------

molecular dipole:
                 x           y           z       tot (Debye)
 q only:        3.485       0.163       4.148
   full:        2.867       0.145       3.655      11.813

           -------------------------------------------------
          | TOTAL ENERGY              -17.979732739926 Eh   |
          | GRADIENT NORM               0.000791974660 Eh/α |
          | HOMO-LUMO GAP               9.308898492122 eV   |
           -------------------------------------------------

 * finished run on 2023/01/24 at 15:09:47.988
