   * xtb version 6.5.1 (fef0646) compiled by 'conda@b96dff2e9fd6' on 2023-01-04
          program call               : xtb init.xyz --opt -c 1 -u 0 -P 16 --alpb water

   ID    Z sym.   atoms
    1    7 N      1
    2    6 C      2-7, 10, 11
    3    8 O      8, 9
    4    1 H      12-27

      * Solvation model:               ALPB
        Solvent                        water
        Solvent mass                       1.8000E+01 g/mol
          :  Hamiltonian                  GFN2-xTB          :
 * total energy  :   -36.0555151 Eh     change       -0.4863878E-09 Eh
 * total energy  :   -36.0584811 Eh     change       -0.2965924E-02 Eh
 * total energy  :   -36.0590359 Eh     change       -0.5547980E-03 Eh
 * total energy  :   -36.0591411 Eh     change       -0.1052327E-03 Eh
 * total energy  :   -36.0591951 Eh     change       -0.5396862E-04 Eh
 * total energy  :   -36.0592353 Eh     change       -0.4022716E-04 Eh
 * total energy  :   -36.0592828 Eh     change       -0.4753663E-04 Eh
 * total energy  :   -36.0593212 Eh     change       -0.3831743E-04 Eh
 * total energy  :   -36.0593743 Eh     change       -0.5317246E-04 Eh
 * total energy  :   -36.0594082 Eh     change       -0.3384234E-04 Eh
 * total energy  :   -36.0594452 Eh     change       -0.3698596E-04 Eh
 * total energy  :   -36.0594603 Eh     change       -0.1517450E-04 Eh
 * total energy  :   -36.0594634 Eh     change       -0.3028047E-05 Eh
   *** GEOMETRY OPTIMIZATION CONVERGED AFTER 13 ITERATIONS ***

 final structure:
================
27
 xtb: 6.5.1 (fef0646)
N            2.99503552509688        0.96631686837888       -0.88465949196354
C            2.34712106955722        0.01840803891883        0.05158242199768
C            2.80886708359741        0.24040715291688        1.49373415065953
C            2.32356823354454       -0.92232467234924        2.36358466060929
C            2.78024254639656       -0.74872298405531        3.80881400498297
C            2.24370668846791        0.57347007648549        4.38381396355512
C            2.77351159563184        0.71089559845834        5.79330288078069
O            1.97677444489165        0.30776837095504        6.78365831565485
O            3.88208763387600        1.12654305433118        6.04705800130473
C            2.72213395485585        1.73954963014342        3.51510970146156
C            2.27943137274407        1.55895046294500        2.06531503133917
H            2.70845123168986        0.77094246254959       -1.85048229383185
H            4.01625654396630        0.88485420007816       -0.82058094246196
H            2.73189018851099        1.93041338069440       -0.65343006457221
H            2.59546824827230       -0.99868758327100       -0.24980227257062
H            1.26602110079748        0.14161433308940       -0.00738412273827
H            3.90208515529347        0.25313114347716        1.53358077814793
H            2.71689741631356       -1.86618359760607        1.98512749743793
H            1.23408746855454       -0.97454681845711        2.33499529179881
H            3.87094823471569       -0.73099335197182        3.86189979344015
H            2.43576980124062       -1.58956898361244        4.41291792843196
H            1.15025130297789        0.54592631674469        4.39493352362223
H            1.09638023645522        0.00811009862338        6.49196435390751
H            3.81050449330411        1.79311409136421        3.58320105069816
H            2.32618506602122        2.67503123738955        3.91548859712882
H            2.64986011448385        2.41496741094802        1.50207348416571
H            1.18864324874289        1.56424406283135        2.02623375701380

          :  Hamiltonian                  GFN2-xTB          :
         :: total energy             -36.059463354186 Eh    ::
         :: gradient norm              0.000686315435 Eh/a0 ::
         :: HOMO-LUMO gap              4.681893716109 eV    ::
         :: SCC energy               -36.491248727205 Eh    ::
         :: -> dispersion             -0.019611015067 Eh    ::
         :: -> Gsolv                  -0.142381562220 Eh    ::
         :: repulsion energy           0.431696323585 Eh    ::

    * Orbital Energies and Occupations

         #    Occupation            Energy/Eh            Energy/eV
      -------------------------------------------------------------
         1        2.0000           -0.7460426             -20.3009
       ...           ...                  ...                  ...
        20        2.0000           -0.5086517             -13.8411
        21        2.0000           -0.5048642             -13.7381
        22        2.0000           -0.4887874             -13.3006
        23        2.0000           -0.4812781             -13.0962
        24        2.0000           -0.4784749             -13.0200
        25        2.0000           -0.4749038             -12.9228
        26        2.0000           -0.4686841             -12.7535
        27        2.0000           -0.4535271             -12.3411
        28        2.0000           -0.4459877             -12.1359
        29        2.0000           -0.4440076             -12.0821
        30        2.0000           -0.4300099             -11.7012
        31        2.0000           -0.4230761             -11.5125
        32        2.0000           -0.4137552             -11.2589 (HOMO)
        33                         -0.2416988              -6.5770 (LUMO)
        34                         -0.0514183              -1.3992
        35                          0.0327413               0.8909
        36                          0.0505933               1.3767
        37                          0.0594356               1.6173
        38                          0.0695968               1.8938
        39                          0.0835466               2.2734
        40                          0.0846748               2.3041
        41                          0.0951734               2.5898
        42                          0.1073165               2.9202
        43                          0.1117041               3.0396
       ...                                ...                  ...
        60                          0.5967463              16.2383
      -------------------------------------------------------------
                  HL-Gap            0.1720564 Eh            4.6819 eV

     #   Z          covCN         q      C6AA      α(0)
     1   7 N        3.484    -0.158    24.405     7.337
     2   6 C        3.735    -0.047    21.507     6.618
     3   6 C        3.855    -0.032    21.107     6.534
     4   6 C        3.810    -0.076    21.936     6.667
     5   6 C        3.811    -0.058    21.600     6.615
     6   6 C        3.855    -0.055    21.526     6.599
     7   6 C        2.697     0.366    20.798     7.464
     8   8 O        1.659    -0.432    21.470     6.255
     9   8 O        0.857    -0.472    23.176     6.454
    10   6 C        3.809    -0.061    21.674     6.627
    11   6 C        3.807    -0.081    22.044     6.684
    12   1 H        0.859     0.319     0.658     1.271
    13   1 H        0.859     0.309     0.688     1.299
    14   1 H        0.859     0.302     0.709     1.319
    15   1 H        0.925     0.113     1.673     2.022
    16   1 H        0.925     0.113     1.668     2.020
    17   1 H        0.924     0.069     2.099     2.266
    18   1 H        0.924     0.058     2.223     2.331
    19   1 H        0.924     0.059     2.207     2.323
    20   1 H        0.924     0.046     2.371     2.408
    21   1 H        0.924     0.037     2.490     2.468
    22   1 H        0.924     0.061     2.186     2.312
    23   1 H        0.804     0.410     0.466     1.073
    24   1 H        0.924     0.051     2.307     2.375
    25   1 H        0.924     0.035     2.521     2.483
    26   1 H        0.925     0.063     2.160     2.298
    27   1 H        0.924     0.061     2.190     2.315

Wiberg/Mayer (AO) data.
largest (>0.10) Wiberg bond orders for each atom

     #   Z sym  total        # sym  WBO       # sym  WBO       # sym  WBO
 ---------------------------------------------------------------------------
     1   7 N    3.655 --     2 C    0.968    14 H    0.890    13 H    0.889
                            12 H    0.885
     2   6 C    3.925 --     3 C    0.998     1 N    0.968    15 H    0.964
                            16 H    0.964
     3   6 C    3.992 --     2 C    0.998    11 C    0.997     4 C    0.994
                            17 H    0.961
     4   6 C    3.993 --     5 C    1.005     3 C    0.994    19 H    0.974
                            18 H    0.972
     5   6 C    3.991 --     4 C    1.005    21 H    0.976    20 H    0.976
                             6 C    0.964
     6   6 C    3.989 --    10 C    0.987     7 C    0.967     5 C    0.964
                            22 H    0.960
     7   6 C    3.890 --     9 O    1.720     8 O    1.154     6 C    0.967
     8   8 O    2.171 --     7 C    1.154    23 H    0.807     9 O    0.158
     9   8 O    1.990 --     7 C    1.720     8 O    0.158
    10   6 C    3.991 --    11 C    1.007     6 C    0.987    25 H    0.976
                            24 H    0.974
    11   6 C    3.993 --    10 C    1.007     3 C    0.997    27 H    0.973
                            26 H    0.969
    12   1 H    0.898 --     1 N    0.885
    13   1 H    0.905 --     1 N    0.889
    14   1 H    0.909 --     1 N    0.890
    15   1 H    0.987 --     2 C    0.964
    16   1 H    0.987 --     2 C    0.964
    17   1 H    0.995 --     3 C    0.961
    18   1 H    0.996 --     4 C    0.972
    19   1 H    0.996 --     4 C    0.974
    20   1 H    0.998 --     5 C    0.976
    21   1 H    0.998 --     5 C    0.976
    22   1 H    0.996 --     6 C    0.960
    23   1 H    0.832 --     8 O    0.807
    24   1 H    0.997 --    10 C    0.974
    25   1 H    0.999 --    10 C    0.976
    26   1 H    0.996 --    11 C    0.969
    27   1 H    0.996 --    11 C    0.973
 ---------------------------------------------------------------------------

molecular dipole:
                 x           y           z       tot (Debye)
 q only:        3.800       0.973      -2.834
   full:        3.684       0.994      -2.752      11.958

           -------------------------------------------------
          | TOTAL ENERGY              -36.059463354186 Eh   |
          | GRADIENT NORM               0.000686315435 Eh/α |
          | HOMO-LUMO GAP               4.681893716109 eV   |
           -------------------------------------------------

 * finished run on 2023/01/24 at 15:20:11.950
