   * xtb version 6.5.1 (fef0646) compiled by 'conda@b96dff2e9fd6' on 2023-01-04
          program call               : xtb init.xyz --opt -c 1 -u 0 -P 16 --input xtb.inp

   ID    Z sym.   atoms
    1    7 N      1
    2    6 C      2-7, 10, 11
    3    8 O      8, 9
    4    1 H      12-27

          :  Hamiltonian                  GFN2-xTB          :
 * total energy  :   -35.9279510 Eh     change       -0.1590053E-09 Eh
 * total energy  :   -35.9314490 Eh     change       -0.3497939E-02 Eh
 * total energy  :   -35.9320541 Eh     change       -0.6051376E-03 Eh
 * total energy  :   -35.9322752 Eh     change       -0.2211428E-03 Eh
 * total energy  :   -35.9324209 Eh     change       -0.1456678E-03 Eh
 * total energy  :   -35.9325644 Eh     change       -0.1434944E-03 Eh
 * total energy  :   -35.9327401 Eh     change       -0.1756506E-03 Eh
 * total energy  :   -35.9328916 Eh     change       -0.1515251E-03 Eh
 * total energy  :   -35.9329888 Eh     change       -0.9725549E-04 Eh
 * total energy  :   -35.9330513 Eh     change       -0.6249725E-04 Eh
 * total energy  :   -35.9331153 Eh     change       -0.6400968E-04 Eh
 * total energy  :   -35.9331552 Eh     change       -0.3988749E-04 Eh
 * total energy  :   -35.9331810 Eh     change       -0.2576819E-04 Eh
 * total energy  :   -35.9331991 Eh     change       -0.1809901E-04 Eh
 * total energy  :   -35.9332049 Eh     change       -0.5835995E-05 Eh
 * total energy  :   -35.9332127 Eh     change       -0.7769172E-05 Eh
 * total energy  :   -35.9332160 Eh     change       -0.3272758E-05 Eh
   *** GEOMETRY OPTIMIZATION CONVERGED AFTER 17 ITERATIONS ***

 final structure:
================
27
 xtb: 6.5.1 (fef0646)
N            3.48173064240922        0.23026432350886       -1.13240577004386
C            2.55664693947947        0.02644287921965        0.02440564899788
C            2.86987406748713        1.02557653245124        1.13851670007232
C            2.07894228917248        0.66834585507668        2.40073504815390
C            2.44724482043764        1.61852658804353        3.53741339838140
C            2.17352946536005        3.07974381730970        3.15452407562263
C            2.74001788139551        3.95423753942295        4.27888068921441
O            1.88803943169562        4.29272057240183        5.24818154212706
O            3.88908274098925        4.28077969115583        4.31268099219781
C            2.88862962632485        3.43087309027710        1.84937460231918
C            2.52995007426477        2.46020851228522        0.72689518152784
H            3.22926019646250       -0.35946615839888       -1.93426532164733
H            4.44742160913516        0.01623192857948       -0.85179041423637
H            3.43869189104074        1.22275635694946       -1.40904585757361
H            2.67003506876838       -0.99711381878544        0.38424893557383
H            1.53220054667322        0.16233777489006       -0.32533230608616
H            3.93628350360670        0.96591199710096        1.38236180802442
H            2.29834008743336       -0.35584234887351        2.70474679141167
H            1.00978178775741        0.73758788174140        2.19293459421191
H            3.50814577526037        1.51371006955011        3.77272851389827
H            1.88142104023999        1.35123842295792        4.43083175873070
H            1.09524541578110        3.23896730271042        3.04525950296162
H            0.98256092267029        3.98453963893899        5.11191251536556
H            3.96376988051794        3.41165834647937        2.03530476778108
H            2.62607631920073        4.44686322664100        1.55294135263032
H            3.07718473706916        2.76599346882451       -0.17076008376641
H            1.46144323936675        2.53221650954172        0.51217133415002

          :  Hamiltonian                  GFN2-xTB          :
         :: total energy             -35.933215979759 Eh    ::
         :: gradient norm              0.000380823891 Eh/a0 ::
         :: HOMO-LUMO gap              4.946607811188 eV    ::
         :: SCC energy               -36.366248801813 Eh    ::
         :: -> dispersion             -0.019649940477 Eh    ::
         :: repulsion energy           0.432938974219 Eh    ::

    * Orbital Energies and Occupations

         #    Occupation            Energy/Eh            Energy/eV
      -------------------------------------------------------------
         1        2.0000           -0.8978911             -24.4329
       ...           ...                  ...                  ...
        20        2.0000           -0.6391886             -17.3932
        21        2.0000           -0.6342699             -17.2594
        22        2.0000           -0.6198724             -16.8676
        23        2.0000           -0.6115489             -16.6411
        24        2.0000           -0.6031796             -16.4134
        25        2.0000           -0.6026511             -16.3990
        26        2.0000           -0.5904645             -16.0674
        27        2.0000           -0.5741044             -15.6222
        28        2.0000           -0.5700559             -15.5120
        29        2.0000           -0.5618064             -15.2875
        30        2.0000           -0.5519701             -15.0199
        31        2.0000           -0.5496067             -14.9556
        32        2.0000           -0.5042515             -13.7214 (HOMO)
        33                         -0.3224670              -8.7748 (LUMO)
        34                         -0.2665930              -7.2544
        35                         -0.1684580              -4.5840
        36                         -0.1176844              -3.2024
        37                         -0.1108279              -3.0158
        38                         -0.0842193              -2.2917
        39                         -0.0707287              -1.9246
        40                         -0.0509825              -1.3873
        41                         -0.0430698              -1.1720
        42                         -0.0374252              -1.0184
        43                         -0.0257512              -0.7007
       ...                                ...                  ...
        60                          0.5624775              15.3058
      -------------------------------------------------------------
                  HL-Gap            0.1817845 Eh            4.9466 eV

     #   Z          covCN         q      C6AA      α(0)
     1   7 N        3.483    -0.129    23.793     7.245
     2   6 C        3.734    -0.040    21.376     6.599
     3   6 C        3.856    -0.035    21.159     6.542
     4   6 C        3.809    -0.067    21.776     6.643
     5   6 C        3.811    -0.062    21.677     6.627
     6   6 C        3.853    -0.058    21.587     6.608
     7   6 C        2.695     0.355    20.966     7.494
     8   8 O        1.659    -0.353    19.956     6.031
     9   8 O        0.857    -0.358    20.850     6.122
    10   6 C        3.810    -0.065    21.734     6.636
    11   6 C        3.807    -0.070    21.834     6.652
    12   1 H        0.859     0.269     0.813     1.413
    13   1 H        0.859     0.271     0.805     1.405
    14   1 H        0.859     0.274     0.796     1.398
    15   1 H        0.924     0.104     1.746     2.066
    16   1 H        0.924     0.105     1.742     2.064
    17   1 H        0.924     0.062     2.180     2.309
    18   1 H        0.924     0.052     2.292     2.367
    19   1 H        0.924     0.054     2.275     2.359
    20   1 H        0.924     0.061     2.188     2.313
    21   1 H        0.924     0.054     2.272     2.357
    22   1 H        0.924     0.041     2.431     2.438
    23   1 H        0.805     0.327     0.646     1.263
    24   1 H        0.924     0.071     2.079     2.255
    25   1 H        0.924     0.057     2.229     2.335
    26   1 H        0.924     0.025     2.652     2.547
    27   1 H        0.924     0.053     2.280     2.361

Wiberg/Mayer (AO) data.
largest (>0.10) Wiberg bond orders for each atom

     #   Z sym  total        # sym  WBO       # sym  WBO       # sym  WBO
 ---------------------------------------------------------------------------
     1   7 N    3.674 --     2 C    0.925    12 H    0.913    13 H    0.911
                            14 H    0.895
     2   6 C    3.885 --     3 C    0.992    15 H    0.967    16 H    0.966
                             1 N    0.925
     3   6 C    3.980 --    11 C    0.996     2 C    0.992     4 C    0.988
                            17 H    0.960
     4   6 C    3.992 --     5 C    1.005     3 C    0.988    19 H    0.975
                            18 H    0.973
     5   6 C    3.992 --     4 C    1.005     6 C    0.979    21 H    0.974
                            20 H    0.974
     6   6 C    3.995 --    10 C    0.995     5 C    0.979    22 H    0.964
                             7 C    0.939
     7   6 C    3.919 --     9 O    1.800     8 O    1.142     6 C    0.939
     8   8 O    2.227 --     7 C    1.142    23 H    0.869     9 O    0.169
     9   8 O    2.085 --     7 C    1.800     8 O    0.169
    10   6 C    3.990 --    11 C    1.005     6 C    0.995    25 H    0.974
                            24 H    0.970
    11   6 C    3.995 --    10 C    1.005     3 C    0.996    27 H    0.974
                            26 H    0.965
    12   1 H    0.927 --     1 N    0.913
    13   1 H    0.926 --     1 N    0.911
    14   1 H    0.925 --     1 N    0.895
    15   1 H    0.989 --     2 C    0.967
    16   1 H    0.989 --     2 C    0.966
    17   1 H    0.996 --     3 C    0.960
    18   1 H    0.997 --     4 C    0.973
    19   1 H    0.997 --     4 C    0.975
    20   1 H    0.996 --     5 C    0.974
    21   1 H    0.997 --     5 C    0.974
    22   1 H    0.998 --     6 C    0.964
    23   1 H    0.893 --     8 O    0.869
    24   1 H    0.995 --    10 C    0.970
    25   1 H    0.996 --    10 C    0.974
    26   1 H    0.999 --    11 C    0.965
    27   1 H    0.997 --    11 C    0.974
 ---------------------------------------------------------------------------

molecular dipole:
                 x           y           z       tot (Debye)
 q only:        4.964       0.213      -1.453
   full:        4.739       0.010      -1.831      12.914

           -------------------------------------------------
          | TOTAL ENERGY              -35.933215979759 Eh   |
          | GRADIENT NORM               0.000380823891 Eh/α |
          | HOMO-LUMO GAP               4.946607811188 eV   |
           -------------------------------------------------

 * finished run on 2023/01/23 at 18:56:17.483
