   * xtb version 6.5.1 (fef0646) compiled by 'conda@b96dff2e9fd6' on 2023-01-04
          program call               : xtb init.xyz --opt -c 1 -u 0 -P 16 --alpb water

   ID    Z sym.   atoms
    1    8 O      1
    2    6 C      2-4
    3    7 N      5
    4    1 H      6-15

      * Solvation model:               ALPB
        Solvent                        water
        Solvent mass                       1.8000E+01 g/mol
          :  Hamiltonian                  GFN2-xTB          :
 * total energy  :   -18.1829463 Eh     change       -0.1189449E-10 Eh
 * total energy  :   -18.1852488 Eh     change       -0.2302591E-02 Eh
 * total energy  :   -18.1858004 Eh     change       -0.5515097E-03 Eh
 * total energy  :   -18.1859790 Eh     change       -0.1786371E-03 Eh
 * total energy  :   -18.1860634 Eh     change       -0.8445569E-04 Eh
 * total energy  :   -18.1860847 Eh     change       -0.2125367E-04 Eh
 * total energy  :   -18.1860935 Eh     change       -0.8832505E-05 Eh
 * total energy  :   -18.1860968 Eh     change       -0.3308786E-05 Eh
   *** GEOMETRY OPTIMIZATION CONVERGED AFTER 8 ITERATIONS ***

 final structure:
================
15
 xtb: 6.5.1 (fef0646)
O            2.83378282017259       -1.24590887124412       -0.11348686160041
C            2.38843469046330        0.09004824544891        0.08330429719846
C            2.93234895980005        0.96859475030618       -1.04404911624634
C            4.45621714833725        1.01673534095928       -1.04391226495744
N            4.99363837061387       -0.31147351187793       -1.42422771402638
H            2.40627152470282       -1.83766455627401        0.51493707448304
H            2.74154753192690        0.46148318976762        1.05380234790675
H            1.29418228416649        0.13124595429999        0.07921222008031
H            2.53487142407870        1.97311746687070       -0.91379676133391
H            2.56886450936857        0.58313902638157       -1.99668504819012
H            4.81191880481230        1.27116285583041       -0.04525050290147
H            4.80875684136360        1.77356970792978       -1.74369713951971
H            4.46495802152765       -1.02046677130798       -0.87666303259476
H            5.99674680860024       -0.38689069188321       -1.23555019007733
H            4.82106026006568       -0.49819213520719       -2.41678730822067

          :  Hamiltonian                  GFN2-xTB          :
         :: total energy             -18.186096844202 Eh    ::
         :: gradient norm              0.000444609073 Eh/a0 ::
         :: HOMO-LUMO gap             10.354797248569 eV    ::
         :: SCC energy               -18.393527993761 Eh    ::
         :: -> dispersion             -0.006449629494 Eh    ::
         :: -> Gsolv                  -0.111890916865 Eh    ::
         :: repulsion energy           0.207418729931 Eh    ::

    * Orbital Energies and Occupations

         #    Occupation            Energy/Eh            Energy/eV
      -------------------------------------------------------------
         1        2.0000           -0.6995715             -19.0363
       ...           ...                  ...                  ...
         4        2.0000           -0.6257973             -17.0288
         5        2.0000           -0.6001524             -16.3310
         6        2.0000           -0.5877602             -15.9938
         7        2.0000           -0.5769755             -15.7003
         8        2.0000           -0.5599905             -15.2381
         9        2.0000           -0.5497156             -14.9585
        10        2.0000           -0.5236772             -14.2500
        11        2.0000           -0.5174864             -14.0815
        12        2.0000           -0.4962258             -13.5030
        13        2.0000           -0.4704483             -12.8016
        14        2.0000           -0.4629740             -12.5982
        15        2.0000           -0.4438972             -12.0791
        16        2.0000           -0.4181931             -11.3796 (HOMO)
        17                         -0.0376613              -1.0248 (LUMO)
        18                          0.0243707               0.6632
        19                          0.0725494               1.9742
        20                          0.0779824               2.1220
        21                          0.1109336               3.0187
        22                          0.1196763               3.2566
        23                          0.1409534               3.8355
        24                          0.1496134               4.0712
        25                          0.1697650               4.6195
        26                          0.2153720               5.8606
        27                          0.2299654               6.2577
       ...                                ...                  ...
        30                          0.2815791               7.6622
      -------------------------------------------------------------
                  HL-Gap            0.3805318 Eh           10.3548 eV

     #   Z          covCN         q      C6AA      α(0)
     1   8 O        1.654    -0.494    22.761     6.440
     2   6 C        3.673     0.066    19.693     6.360
     3   6 C        3.802    -0.091    22.234     6.713
     4   6 C        3.732    -0.034    21.269     6.583
     5   7 N        3.485    -0.170    24.656     7.375
     6   1 H        0.805     0.357     0.573     1.189
     7   1 H        0.924     0.038     2.473     2.459
     8   1 H        0.924     0.029     2.595     2.519
     9   1 H        0.925     0.074     2.047     2.237
    10   1 H        0.925     0.084     1.935     2.175
    11   1 H        0.924     0.107     1.724     2.054
    12   1 H        0.925     0.106     1.731     2.058
    13   1 H        0.858     0.319     0.659     1.272
    14   1 H        0.859     0.306     0.694     1.305
    15   1 H        0.859     0.301     0.709     1.320

Wiberg/Mayer (AO) data.
largest (>0.10) Wiberg bond orders for each atom

     #   Z sym  total        # sym  WBO       # sym  WBO       # sym  WBO
 ---------------------------------------------------------------------------
     1   8 O    1.948 --     2 C    0.986     6 H    0.856
     2   6 C    3.952 --     3 C    1.006     1 O    0.986     8 H    0.974
                             7 H    0.970
     3   6 C    3.989 --     4 C    1.014     2 C    1.006    10 H    0.968
                             9 H    0.968
     4   6 C    3.935 --     3 C    1.014     5 N    0.971    12 H    0.968
                            11 H    0.966
     5   7 N    3.645 --     4 C    0.971    15 H    0.895    14 H    0.893
                            13 H    0.843
     6   1 H    0.873 --     1 O    0.856
     7   1 H    0.999 --     2 C    0.970
     8   1 H    0.999 --     2 C    0.974
     9   1 H    0.995 --     3 C    0.968
    10   1 H    0.993 --     3 C    0.968
    11   1 H    0.989 --     4 C    0.966
    12   1 H    0.989 --     4 C    0.968
    13   1 H    0.898 --     5 N    0.843
    14   1 H    0.906 --     5 N    0.893
    15   1 H    0.909 --     5 N    0.895
 ---------------------------------------------------------------------------

molecular dipole:
                 x           y           z       tot (Debye)
 q only:        8.764      -0.299      -2.177
   full:        8.612      -0.399      -2.012      22.502

           -------------------------------------------------
          | TOTAL ENERGY              -18.186096844202 Eh   |
          | GRADIENT NORM               0.000444609073 Eh/α |
          | HOMO-LUMO GAP              10.354797248569 eV   |
           -------------------------------------------------

 * finished run on 2023/01/24 at 14:55:50.667
