   * xtb version 6.5.1 (fef0646) compiled by 'conda@b96dff2e9fd6' on 2023-01-04
          program call               : xtb init.xyz --opt -c 1 -u 0 -P 16

   ID    Z sym.   atoms
    1    7 N      1, 24, 26
    2    6 C      2-21, 23, 27
    3   16 S      22, 25, 28, 29
    4    1 H      30-49

          :  Hamiltonian                  GFN2-xTB          :
 * total energy  :   -78.6121425 Eh     change       -0.1385899E-08 Eh
 * total energy  :   -78.6283585 Eh     change       -0.1621601E-01 Eh
 * total energy  :   -78.6343383 Eh     change       -0.5979781E-02 Eh
 * total energy  :   -78.6363605 Eh     change       -0.2022215E-02 Eh
 * total energy  :   -78.6379999 Eh     change       -0.1639426E-02 Eh
 * total energy  :   -78.6391108 Eh     change       -0.1110853E-02 Eh
 * total energy  :   -78.6402311 Eh     change       -0.1120312E-02 Eh
 * total energy  :   -78.6412672 Eh     change       -0.1036131E-02 Eh
 * total energy  :   -78.6419963 Eh     change       -0.7290750E-03 Eh
 * total energy  :   -78.6424955 Eh     change       -0.4991858E-03 Eh
 * total energy  :   -78.6447565 Eh     change       -0.8955321E-05 Eh
 * total energy  :   -78.6447637 Eh     change       -0.7235525E-05 Eh
 * total energy  :   -78.6447698 Eh     change       -0.6110177E-05 Eh
 * total energy  :   -78.6447767 Eh     change       -0.6871706E-05 Eh
 * total energy  :   -78.6447845 Eh     change       -0.7859902E-05 Eh
 * total energy  :   -78.6447917 Eh     change       -0.7117001E-05 Eh
 * total energy  :   -78.6447974 Eh     change       -0.5701666E-05 Eh
 * total energy  :   -78.6448033 Eh     change       -0.5927458E-05 Eh
 * total energy  :   -78.6448061 Eh     change       -0.2770360E-05 Eh
   *** GEOMETRY OPTIMIZATION CONVERGED AFTER 44 ITERATIONS ***

 final structure:
================
49
 xtb: 6.5.1 (fef0646)
N            3.52321052100160        0.80979500959604        1.29258698215790
C            2.72797979936810        1.30006908041660        0.13271240788467
C            3.56339975493617        2.32489731504520       -0.64238979368261
C            4.80604367943131        1.69567456898732       -1.17821994711964
C            5.06096461692031        1.22144893618700       -2.42617204526931
C            6.31354171363261        0.59247555423344       -2.54997611913941
C            7.04253879945225        0.55833848291523       -1.39009750231172
C            8.31826028174435       -0.00655377985857       -1.14652645093021
C            9.05648928127120        0.01553918834014        0.01523230078524
C           10.28453591006748       -0.64965763011846       -0.07674080665592
C           11.23363053744962       -0.68453828830257        1.07622503991190
C           10.49133556834762       -1.20171916430316       -1.33476067077015
C           11.58151674175663       -1.98350573045605       -1.85270925445435
C           12.56038062053963       -2.60960119590462       -1.09453097489473
C           13.59205792843051       -3.36501344316421       -1.65463317311836
C           13.73590645278988       -3.56664413613419       -3.01925304333659
C           14.78798263593139       -4.34246963762147       -3.61698011243332
C           15.51650033272791       -5.39842128245611       -3.10168454811957
C           15.31715798197711       -6.04481174036732       -1.77048630144080
C           16.47478436745034       -5.87489337135691       -4.02134596365864
C           16.47644789317335       -5.19725400362814       -5.20035080265564
S           15.28572967730093       -3.97141189285818       -5.24714434462076
C           12.75672386160568       -2.93724929250133       -3.83332260988517
N           12.66460864020870       -2.98562908102825       -5.15999778479883
S           11.37923942218696       -2.15979363547372       -5.63737315580653
N           10.85979381271030       -1.69755099754093       -4.18153434457218
C           11.68832581640835       -2.17492225184356       -3.25515566667380
S            9.17146676286004       -0.84856814003470       -2.40926166616033
S            6.16957798633556        1.37049220892065       -0.10656494021006
H            3.13192820348617       -0.04238387056260        1.70350955152134
H            3.58848382291962        1.53434761110634        2.01563975467716
H            4.50803641897375        0.63764015966947        0.93817645654188
H            1.79533465752344        1.73955154158954        0.48640021828052
H            2.50123007528548        0.45034144281775       -0.51240752121253
H            3.80747908423347        3.16818976093085        0.00678796233116
H            2.96733815492057        2.70209237343783       -1.47308197700777
H            4.37112000849271        1.32256329628206       -3.24474076675383
H            6.68797423192136        0.17061942692677       -3.46410503291339
H            8.72315004834246        0.51201806819002        0.91228952704548
H           10.93519009024558        0.05475048726439        1.81612065060078
H           12.24770022836224       -0.45989411892640        0.75205630286083
H           11.22880831718128       -1.66240540360767        1.55815787053372
H           12.53126210208816       -2.53749828077426       -0.02168440133943
H           14.32282196318882       -3.78400108888107       -0.98391616539254
H           14.26780686918551       -6.03722813692131       -1.48290357144902
H           15.89383735459220       -5.53158645892165       -1.00006720062811
H           15.66285619061036       -7.07524040693361       -1.81115746812227
H           17.13677147378448       -6.69462745076983       -3.80570710140639
H           17.10650930664654       -5.35725060160428       -6.05263179618945

          :  Hamiltonian                  GFN2-xTB          :
         :: total energy             -78.644806055313 Eh    ::
         :: gradient norm              0.000283405657 Eh/a0 ::
         :: HOMO-LUMO gap              1.328730990801 eV    ::
         :: SCC energy               -79.796887611351 Eh    ::
         :: -> dispersion             -0.065607672697 Eh    ::
         :: repulsion energy           1.152623197283 Eh    ::

    * Orbital Energies and Occupations

         #    Occupation            Energy/Eh            Energy/eV
      -------------------------------------------------------------
         1        2.0000           -0.8668215             -23.5874
       ...           ...                  ...                  ...
        61        2.0000           -0.5115919             -13.9211
        62        2.0000           -0.5104841             -13.8910
        63        2.0000           -0.5064151             -13.7803
        64        2.0000           -0.4982989             -13.5594
        65        2.0000           -0.4964504             -13.5091
        66        2.0000           -0.4804285             -13.0731
        67        2.0000           -0.4759454             -12.9511
        68        2.0000           -0.4740741             -12.9002
        69        2.0000           -0.4717264             -12.8363
        70        2.0000           -0.4650192             -12.6538
        71        2.0000           -0.4526012             -12.3159
        72        2.0000           -0.4410115             -12.0005
        73        2.0000           -0.4258687             -11.5885 (HOMO)
        74                         -0.3770387             -10.2597 (LUMO)
        75                         -0.3611435              -9.8272
        76                         -0.3297854              -8.9739
        77                         -0.3203315              -8.7167
        78                         -0.3029569              -8.2439
        79                         -0.2844149              -7.7393
        80                         -0.2820235              -7.6742
        81                         -0.2755815              -7.4990
        82                         -0.2667692              -7.2592
        83                         -0.2559229              -6.9640
        84                         -0.2476775              -6.7396
       ...                                ...                  ...
       156                          0.6659130              18.1204
      -------------------------------------------------------------
                  HL-Gap            0.0488300 Eh            1.3287 eV

     #   Z          covCN         q      C6AA      α(0)
     1   7 N        3.482    -0.150    24.242     7.313
     2   6 C        3.733    -0.030    21.199     6.572
     3   6 C        3.822    -0.086    22.118     6.693
     4   6 C        2.984    -0.010    28.256     8.719
     5   6 C        3.089    -0.043    28.950     8.820
     6   6 C        3.105    -0.054    29.188     8.852
     7   6 C        3.018     0.036    27.173     8.551
     8   6 C        3.018    -0.000    28.014     8.682
     9   6 C        3.100    -0.055    29.237     8.861
    10   6 C        3.124    -0.001    27.855     8.643
    11   6 C        3.755    -0.106    22.582     6.776
    12   6 C        2.996     0.022    27.511     8.604
    13   6 C        3.007    -0.009    28.234     8.716
    14   6 C        2.922    -0.039    28.980     8.828
    15   6 C        2.923    -0.045    29.128     8.851
    16   6 C        2.998     0.007    27.854     8.657
    17   6 C        2.997     0.007    27.862     8.659
    18   6 C        3.135     0.005    27.697     8.614
    19   6 C        3.755    -0.106    22.582     6.776
    20   6 C        3.119    -0.052    29.106     8.836
    21   6 C        2.934    -0.018    28.466     8.750
    22  16 S        2.334     0.009   140.701    19.964
    23   6 C        3.351     0.072    23.768     7.681
    24   7 N        1.867    -0.253    27.438     7.764
    25  16 S        2.663     0.364   127.097    18.974
    26   7 N        1.943    -0.268    27.802     7.819
    27   6 C        3.352     0.072    23.734     7.672
    28  16 S        2.435    -0.007   141.334    20.009
    29  16 S        2.365    -0.116   145.905    20.330
    30   1 H        0.859     0.260     0.845     1.440
    31   1 H        0.859     0.265     0.828     1.426
    32   1 H        0.887     0.285     0.757     1.362
    33   1 H        0.925     0.101     1.774     2.083
    34   1 H        0.924     0.105     1.744     2.065
    35   1 H        0.924     0.075     2.028     2.227
    36   1 H        0.925     0.096     1.826     2.113
    37   1 H        0.926     0.053     2.282     2.362
    38   1 H        0.926     0.061     2.186     2.312
    39   1 H        0.926     0.035     2.515     2.480
    40   1 H        0.925     0.051     2.313     2.378
    41   1 H        0.925     0.055     2.255     2.348
    42   1 H        0.925     0.051     2.303     2.373
    43   1 H        0.926     0.051     2.303     2.373
    44   1 H        0.926     0.054     2.274     2.358
    45   1 H        0.925     0.047     2.360     2.402
    46   1 H        0.924     0.052     2.296     2.370
    47   1 H        0.925     0.055     2.257     2.349
    48   1 H        0.926     0.047     2.359     2.402
    49   1 H        0.926     0.056     2.243     2.342

Wiberg/Mayer (AO) data.
largest (>0.10) Wiberg bond orders for each atom

     #   Z sym  total        # sym  WBO       # sym  WBO       # sym  WBO
 ---------------------------------------------------------------------------
     1   7 N    3.658 --     2 C    0.940    30 H    0.918    31 H    0.914
                            32 H    0.822
     2   6 C    3.901 --     3 C    0.991    34 H    0.968    33 H    0.968
                             1 N    0.940
     3   6 C    3.982 --     4 C    1.022     2 C    0.991    35 H    0.964
                            36 H    0.957
     4   6 C    3.894 --     5 C    1.594    29 S    1.086     3 C    1.022
     5   6 C    3.987 --     4 C    1.594     6 C    1.291    37 H    0.960
     6   6 C    3.964 --     7 C    1.509     5 C    1.291    38 H    0.957
     7   6 C    3.941 --     6 C    1.509     8 C    1.189    29 S    1.068
     8   6 C    3.931 --     9 C    1.445     7 C    1.189    28 S    1.119
     9   6 C    3.981 --     8 C    1.445    10 C    1.342    39 H    0.961
    10   6 C    3.949 --    12 C    1.420     9 C    1.342    11 C    1.026
    11   6 C    3.994 --    10 C    1.026    40 H    0.982    41 H    0.972
                            42 H    0.965
    12   6 C    3.934 --    10 C    1.420    28 S    1.152    13 C    1.150
    13   6 C    3.948 --    14 C    1.419    27 C    1.190    12 C    1.150
    14   6 C    3.973 --    13 C    1.419    15 C    1.376    43 H    0.962
    15   6 C    3.986 --    16 C    1.424    14 C    1.376    44 H    0.964
    16   6 C    3.943 --    15 C    1.424    23 C    1.187    17 C    1.146
    17   6 C    3.941 --    18 C    1.460    16 C    1.146    22 S    1.127
    18   6 C    3.948 --    17 C    1.460    20 C    1.289    19 C    1.027
    19   6 C    3.995 --    18 C    1.027    47 H    0.979    45 H    0.976
                            46 H    0.963
    20   6 C    3.980 --    21 C    1.585    18 C    1.289    48 H    0.964
    21   6 C    3.923 --    20 C    1.585    22 S    1.227    49 H    0.969
    22  16 S    2.660 --    21 C    1.227    17 C    1.127
    23   6 C    3.973 --    24 N    1.391    16 C    1.187    27 C    1.177
    24   7 N    3.108 --    25 S    1.442    23 C    1.391    26 N    0.158
    25  16 S    3.175 --    24 N    1.442    26 N    1.400
    26   7 N    3.124 --    25 S    1.400    27 C    1.389    24 N    0.158
    27   6 C    3.970 --    26 N    1.389    13 C    1.190    23 C    1.177
    28  16 S    2.669 --    12 C    1.152     8 C    1.119
    29  16 S    2.545 --     4 C    1.086     7 C    1.068
    30   1 H    0.932 --     1 N    0.918
    31   1 H    0.930 --     1 N    0.914
    32   1 H    0.918 --     1 N    0.822
    33   1 H    0.988 --     2 C    0.968
    34   1 H    0.989 --     2 C    0.968
    35   1 H    0.993 --     3 C    0.964
    36   1 H    0.990 --     3 C    0.957
    37   1 H    0.997 --     5 C    0.960
    38   1 H    0.996 --     6 C    0.957
    39   1 H    0.998 --     9 C    0.961
    40   1 H    0.997 --    11 C    0.982
    41   1 H    0.996 --    11 C    0.972
    42   1 H    0.995 --    11 C    0.965
    43   1 H    0.995 --    14 C    0.962
    44   1 H    0.995 --    15 C    0.964
    45   1 H    0.997 --    19 C    0.976
    46   1 H    0.995 --    19 C    0.963
    47   1 H    0.996 --    19 C    0.979
    48   1 H    0.997 --    20 C    0.964
    49   1 H    0.996 --    21 C    0.969
 ---------------------------------------------------------------------------

molecular dipole:
                 x           y           z       tot (Debye)
 q only:        9.501       0.167       0.939
   full:       10.126      -0.107       1.163      25.907

           -------------------------------------------------
          | TOTAL ENERGY              -78.644806055313 Eh   |
          | GRADIENT NORM               0.000283405657 Eh/α |
          | HOMO-LUMO GAP               1.328730990801 eV   |
           -------------------------------------------------

 * finished run on 2023/01/23 at 13:58:59.526
