   * xtb version 6.5.1 (fef0646) compiled by 'conda@b96dff2e9fd6' on 2023-01-04
          program call               : xtb init.xyz --opt -c 0 -u 0 -P 16

   ID    Z sym.   atoms
    1    7 N      1
    2    6 C      2-4
    3   17 Cl     5
    4    1 H      6-13

          :  Hamiltonian                  GFN2-xTB          :
 * total energy  :   -17.9188784 Eh     change       -0.2508749E-09 Eh
 * total energy  :   -17.9251410 Eh     change       -0.6262561E-02 Eh
 * total energy  :   -17.9303157 Eh     change       -0.5174726E-02 Eh
 * total energy  :   -17.9333631 Eh     change       -0.3047452E-02 Eh
 * total energy  :   -17.9367025 Eh     change       -0.3339384E-02 Eh
 * total energy  :   -17.9381329 Eh     change       -0.1430371E-02 Eh
 * total energy  :   -17.9383941 Eh     change       -0.2611939E-03 Eh
 * total energy  :   -17.9384997 Eh     change       -0.1055813E-03 Eh
 * total energy  :   -17.9385405 Eh     change       -0.4077901E-04 Eh
 * total energy  :   -17.9385527 Eh     change       -0.1220503E-04 Eh
 * total energy  :   -17.9385585 Eh     change       -0.5793148E-05 Eh
 * total energy  :   -17.9385639 Eh     change       -0.5413082E-05 Eh
 * total energy  :   -17.9385727 Eh     change       -0.8809241E-05 Eh
 * total energy  :   -17.9385771 Eh     change       -0.4430734E-05 Eh
   *** GEOMETRY OPTIMIZATION CONVERGED AFTER 14 ITERATIONS ***

 final structure:
================
13
 xtb: 6.5.1 (fef0646)
N            1.10053898709710       -0.34014972137573       -0.17770531908244
C            2.54154246674469       -0.36242307980284       -0.11634039684772
C            3.32123914316649        0.46715260545256       -1.08289038316964
C            3.36578759052593       -1.03272896514479       -1.17930833117978
Cl          -0.01850852405075        2.04615359868607        1.16117943569868
H            0.51705117280141        0.95596416432446        0.55832346136949
H            0.70127480463256       -1.17510194514917        0.23985617443921
H            0.78211705228964       -0.27025652387125       -1.13918793911589
H            2.88902445609275       -0.41752137232107        0.90731783512238
H            4.19304572060517        0.99135105557783       -0.72704444589147
H            2.77076047724812        1.00642573405172       -1.83840926198684
H            4.27036949506961       -1.54349254019543       -0.88906719617955
H            2.85087715777741       -1.49944301023242       -2.00639363317635

          :  Hamiltonian                  GFN2-xTB          :
         :: total energy             -17.938577110516 Eh    ::
         :: gradient norm              0.000729447150 Eh/a0 ::
         :: HOMO-LUMO gap              8.844030860080 eV    ::
         :: SCC energy               -18.130385694318 Eh    ::
         :: -> dispersion             -0.006386767795 Eh    ::
         :: repulsion energy           0.191800730376 Eh    ::

    * Orbital Energies and Occupations

         #    Occupation            Energy/Eh            Energy/eV
      -------------------------------------------------------------
         1        2.0000           -1.0196457             -27.7460
       ...           ...                  ...                  ...
         4        2.0000           -0.5943565             -16.1733
         5        2.0000           -0.5851318             -15.9222
         6        2.0000           -0.5616380             -15.2829
         7        2.0000           -0.5390059             -14.6671
         8        2.0000           -0.5265704             -14.3287
         9        2.0000           -0.5053749             -13.7520
        10        2.0000           -0.4855051             -13.2113
        11        2.0000           -0.4642773             -12.6336
        12        2.0000           -0.4565619             -12.4237
        13        2.0000           -0.4392749             -11.9533
        14        2.0000           -0.3967372             -10.7958
        15        2.0000           -0.3966988             -10.7947
        16        2.0000           -0.3938518             -10.7173 (HOMO)
        17                         -0.0688396              -1.8732 (LUMO)
        18                         -0.0569006              -1.5483
        19                          0.0232349               0.6323
        20                          0.0633798               1.7247
        21                          0.0634305               1.7260
        22                          0.0693804               1.8879
        23                          0.0693833               1.8880
        24                          0.0808993               2.2014
        25                          0.1002847               2.7289
        26                          0.1185458               3.2258
        27                          0.1595479               4.3415
       ...                                ...                  ...
        33                          0.3344292               9.1003
      -------------------------------------------------------------
                  HL-Gap            0.3250122 Eh            8.8440 eV

     #   Z          covCN         q      C6AA      α(0)
     1   7 N        2.663    -0.309    27.944     7.851
     2   6 C        3.787     0.044    19.852     6.346
     3   6 C        3.806    -0.075    21.924     6.666
     4   6 C        3.805    -0.081    22.047     6.684
     5  17 Cl       0.839    -0.465   114.422    16.364
     6   1 H        0.873     0.332     0.625     1.238
     7   1 H        0.860     0.167     1.293     1.781
     8   1 H        0.860     0.172     1.261     1.759
     9   1 H        0.925     0.046     2.369     2.407
    10   1 H        0.926     0.046     2.366     2.405
    11   1 H        0.926     0.047     2.356     2.400
    12   1 H        0.926     0.040     2.453     2.449
    13   1 H        0.926     0.036     2.496     2.471

Wiberg/Mayer (AO) data.
largest (>0.10) Wiberg bond orders for each atom

     #   Z sym  total        # sym  WBO       # sym  WBO       # sym  WBO
 ---------------------------------------------------------------------------
     1   7 N    3.231 --     2 C    1.014     7 H    0.955     8 H    0.954
                             6 H    0.178
     2   6 C    3.931 --     1 N    1.014     3 C    0.979     9 H    0.967
                             4 C    0.963
     3   6 C    3.943 --    10 H    0.980     2 C    0.979    11 H    0.978
                             4 C    0.974
     4   6 C    3.939 --    12 H    0.981    13 H    0.980     3 C    0.974
                             2 C    0.963
     5  17 Cl   0.785 --     6 H    0.708
     6   1 H    0.890 --     5 Cl   0.708     1 N    0.178
     7   1 H    0.972 --     1 N    0.955
     8   1 H    0.970 --     1 N    0.954
     9   1 H    0.998 --     2 C    0.967
    10   1 H    0.998 --     3 C    0.980
    11   1 H    0.998 --     3 C    0.978
    12   1 H    0.998 --     4 C    0.981
    13   1 H    0.999 --     4 C    0.980
 ---------------------------------------------------------------------------

molecular dipole:
                 x           y           z       tot (Debye)
 q only:        0.780      -1.475      -0.891
   full:        0.657      -1.434      -0.877       4.588

           -------------------------------------------------
          | TOTAL ENERGY              -17.938577110516 Eh   |
          | GRADIENT NORM               0.000729447150 Eh/α |
          | HOMO-LUMO GAP               8.844030860080 eV   |
           -------------------------------------------------

 * finished run on 2023/01/23 at 13:41:33.952
