   * xtb version 6.5.1 (fef0646) compiled by 'conda@b96dff2e9fd6' on 2023-01-04
          program call               : xtb init.xyz --opt -c 0 -u 0 -P 16 --alpb water

   ID    Z sym.   atoms
    1    7 N      1
    2    6 C      2-13
    3   17 Cl     14
    4    1 H      15-28

      * Solvation model:               ALPB
        Solvent                        water
        Solvent mass                       1.8000E+01 g/mol
          :  Hamiltonian                  GFN2-xTB          :
 * total energy  :   -40.3247762 Eh     change       -0.2383231E-09 Eh
 * total energy  :   -40.3315549 Eh     change       -0.6778678E-02 Eh
 * total energy  :   -40.3330446 Eh     change       -0.1489661E-02 Eh
 * total energy  :   -40.3334042 Eh     change       -0.3596410E-03 Eh
 * total energy  :   -40.3336542 Eh     change       -0.2499929E-03 Eh
 * total energy  :   -40.3338880 Eh     change       -0.2338290E-03 Eh
 * total energy  :   -40.3344826 Eh     change       -0.5945763E-03 Eh
 * total energy  :   -40.3351563 Eh     change       -0.6736610E-03 Eh
 * total energy  :   -40.3359885 Eh     change       -0.8322161E-03 Eh
 * total energy  :   -40.3371796 Eh     change       -0.1191152E-02 Eh
 * total energy  :   -40.3397299 Eh     change       -0.1395589E-04 Eh
 * total energy  :   -40.3397457 Eh     change       -0.1585541E-04 Eh
 * total energy  :   -40.3397572 Eh     change       -0.1148518E-04 Eh
 * total energy  :   -40.3397800 Eh     change       -0.2282770E-04 Eh
 * total energy  :   -40.3397927 Eh     change       -0.1269103E-04 Eh
 * total energy  :   -40.3398004 Eh     change       -0.7642153E-05 Eh
 * total energy  :   -40.3398079 Eh     change       -0.7554489E-05 Eh
 * total energy  :   -40.3398144 Eh     change       -0.6489625E-05 Eh
 * total energy  :   -40.3398190 Eh     change       -0.4611829E-05 Eh
   *** GEOMETRY OPTIMIZATION CONVERGED AFTER 30 ITERATIONS ***

 final structure:
================
28
 xtb: 6.5.1 (fef0646)
N            1.06157587022365       -0.29745840395037        0.22352329106433
C            2.53303182685810       -0.34300903568761        0.12648957134688
C            3.16718034135801       -0.58426247718342        1.49838309075795
C            4.66480882274390       -0.62807038752250        1.36166644169085
C            5.41399787555563        0.51629555708797        1.44479270549926
C            6.81292204226695        0.49139597384832        1.27537925488300
C            7.59815020761646        1.66103900082180        1.35141530521059
C            8.95245350447828        1.60531647218593        1.17718603596279
C            9.58517445278878        0.37812173807618        0.92214972467798
C            8.85219963172952       -0.77306270107820        0.84396292947158
C            7.45285477999818       -0.74848098193966        1.01521718405078
C            6.66258012465721       -1.91423460066250        0.93568525368195
C            5.30838047846300       -1.85347415644329        1.10061438698490
Cl          -0.16228536756010        0.37690179147516       -2.47834385462568
H            0.63683142961091       -0.08185067692788       -0.71571530662655
H            0.76185571633190        0.43856668634299        0.86759433293482
H            0.68364844566375       -1.19550710195808        0.53438954809571
H            2.88510460780366        0.60093583035271       -0.28892511005578
H            2.81498229214436       -1.13620721905878       -0.56530735766801
H            2.81449966698780       -1.53079078813123        1.90823351638474
H            2.89116703079346        0.22195857339918        2.17807531768382
H            4.94061980527112        1.46662395139249        1.64524489931104
H            7.10931911175804        2.60435347576408        1.54788425861565
H            9.54756241056804        2.50494924670619        1.23357956672118
H           10.65651837155402        0.35316507399460        0.78702529563537
H            9.33506236534351       -1.71960304767225        0.64670486857778
H            7.15112862107061       -2.85774408501399        0.73914165842038
H            4.71781553390888       -2.75511770822357        1.03587319131799

          :  Hamiltonian                  GFN2-xTB          :
         :: total energy             -40.339819032295 Eh    ::
         :: gradient norm              0.000393099502 Eh/a0 ::
         :: HOMO-LUMO gap              3.222812524546 eV    ::
         :: SCC energy               -40.981568965064 Eh    ::
         :: -> dispersion             -0.024941536060 Eh    ::
         :: -> Gsolv                  -0.074268571649 Eh    ::
         :: repulsion energy           0.641813083957 Eh    ::

    * Orbital Energies and Occupations

         #    Occupation            Energy/Eh            Energy/eV
      -------------------------------------------------------------
         1        2.0000           -1.0066797             -27.3931
       ...           ...                  ...                  ...
        25        2.0000           -0.4650486             -12.6546
        26        2.0000           -0.4570451             -12.4368
        27        2.0000           -0.4426230             -12.0444
        28        2.0000           -0.4413834             -12.0107
        29        2.0000           -0.4321012             -11.7581
        30        2.0000           -0.4202558             -11.4357
        31        2.0000           -0.4138356             -11.2610
        32        2.0000           -0.4089492             -11.1281
        33        2.0000           -0.4038541             -10.9894
        34        2.0000           -0.4004840             -10.8977
        35        2.0000           -0.4004723             -10.8974
        36        2.0000           -0.3926197             -10.6837
        37        2.0000           -0.3730488             -10.1512 (HOMO)
        38                         -0.2546127              -6.9284 (LUMO)
        39                         -0.2236066              -6.0846
        40                         -0.1839298              -5.0050
        41                         -0.1417372              -3.8569
        42                         -0.0526941              -1.4339
        43                         -0.0240837              -0.6554
        44                          0.0796016               2.1661
        45                          0.0934836               2.5438
        46                          0.1084789               2.9519
        47                          0.1163060               3.1648
        48                          0.1165589               3.1717
       ...                                ...                  ...
        75                          0.7008677              19.0716
      -------------------------------------------------------------
                  HL-Gap            0.1184362 Eh            3.2228 eV

     #   Z          covCN         q      C6AA      α(0)
     1   7 N        3.483    -0.166    24.579     7.363
     2   6 C        3.735    -0.019    20.993     6.539
     3   6 C        3.809    -0.090    22.209     6.708
     4   6 C        2.968     0.013    27.723     8.636
     5   6 C        2.924    -0.052    29.293     8.876
     6   6 C        2.986     0.009    27.806     8.650
     7   6 C        2.918    -0.042    29.036     8.836
     8   6 C        2.916    -0.036    28.905     8.816
     9   6 C        2.916    -0.037    28.913     8.817
    10   6 C        2.918    -0.041    29.010     8.832
    11   6 C        2.988     0.007    27.858     8.658
    12   6 C        2.916    -0.042    29.032     8.836
    13   6 C        2.920    -0.046    29.134     8.851
    14  17 Cl       0.060    -0.945   124.800    17.002
    15   1 H        0.916     0.294     0.726     1.332
    16   1 H        0.859     0.298     0.718     1.328
    17   1 H        0.859     0.299     0.716     1.326
    18   1 H        0.925     0.094     1.840     2.121
    19   1 H        0.925     0.095     1.830     2.115
    20   1 H        0.925     0.077     2.011     2.218
    21   1 H        0.925     0.075     2.029     2.228
    22   1 H        0.926     0.045     2.380     2.412
    23   1 H        0.926     0.036     2.496     2.471
    24   1 H        0.926     0.030     2.589     2.516
    25   1 H        0.926     0.029     2.606     2.524
    26   1 H        0.926     0.031     2.569     2.507
    27   1 H        0.926     0.033     2.539     2.492
    28   1 H        0.926     0.047     2.352     2.398

Wiberg/Mayer (AO) data.
largest (>0.10) Wiberg bond orders for each atom

     #   Z sym  total        # sym  WBO       # sym  WBO       # sym  WBO
 ---------------------------------------------------------------------------
     1   7 N    3.646 --     2 C    0.970    17 H    0.896    16 H    0.896
                            15 H    0.829
     2   6 C    3.929 --     3 C    0.992     1 N    0.970    18 H    0.969
                            19 H    0.969
     3   6 C    3.988 --     4 C    1.007     2 C    0.992    21 H    0.968
                            20 H    0.968
     4   6 C    3.989 --     5 C    1.528    13 C    1.296     3 C    1.007
     5   6 C    3.990 --     4 C    1.528     6 C    1.283    22 H    0.965
                            12 C    0.115
     6   6 C    3.990 --     5 C    1.283     7 C    1.278    11 C    1.251
     7   6 C    3.990 --     8 C    1.558     6 C    1.278    23 H    0.968
                            10 C    0.118
     8   6 C    3.992 --     7 C    1.558     9 C    1.321    24 H    0.971
     9   6 C    3.990 --    10 C    1.556     8 C    1.321    25 H    0.971
    10   6 C    3.992 --     9 C    1.556    11 C    1.281    26 H    0.968
                             7 C    0.118
    11   6 C    3.990 --    10 C    1.281    12 C    1.277     6 C    1.251
    12   6 C    3.992 --    13 C    1.563    11 C    1.277    27 H    0.968
                             5 C    0.115
    13   6 C    3.990 --    12 C    1.563     4 C    1.296    28 H    0.968
    14  17 Cl   0.106
    15   1 H    0.913 --     1 N    0.829
    16   1 H    0.911 --     1 N    0.896
    17   1 H    0.911 --     1 N    0.896
    18   1 H    0.991 --     2 C    0.969
    19   1 H    0.991 --     2 C    0.969
    20   1 H    0.993 --     3 C    0.968
    21   1 H    0.994 --     3 C    0.968
    22   1 H    0.997 --     5 C    0.965
    23   1 H    0.998 --     7 C    0.968
    24   1 H    0.999 --     8 C    0.971
    25   1 H    0.999 --     9 C    0.971
    26   1 H    0.999 --    10 C    0.968
    27   1 H    0.998 --    12 C    0.968
    28   1 H    0.997 --    13 C    0.968
 ---------------------------------------------------------------------------

molecular dipole:
                 x           y           z       tot (Debye)
 q only:        2.048      -1.260       4.903
   full:        1.779      -1.083       4.244      12.017

           -------------------------------------------------
          | TOTAL ENERGY              -40.339819032295 Eh   |
          | GRADIENT NORM               0.000393099502 Eh/α |
          | HOMO-LUMO GAP               3.222812524546 eV   |
           -------------------------------------------------

 * finished run on 2023/01/24 at 14:56:08.037
