   * xtb version 6.5.1 (fef0646) compiled by 'conda@b96dff2e9fd6' on 2023-01-04
          program call               : xtb init.xyz --opt -c 0 -u 0 -P 16 --input xtb.inp

   ID    Z sym.   atoms
    1    7 N      1
    2    6 C      2, 3, 5-20
    3    8 O      4
    4   17 Cl     21
    5    1 H      22-37

          :  Hamiltonian                  GFN2-xTB          :
 * total energy  :   -58.2351400 Eh     change       -0.2906738E-08 Eh
 * total energy  :   -58.2464832 Eh     change       -0.1134328E-01 Eh
 * total energy  :   -58.2523292 Eh     change       -0.5845921E-02 Eh
 * total energy  :   -58.2551998 Eh     change       -0.2870654E-02 Eh
 * total energy  :   -58.2589945 Eh     change       -0.3794679E-02 Eh
 * total energy  :   -58.2613097 Eh     change       -0.2315181E-02 Eh
 * total energy  :   -58.2622265 Eh     change       -0.9168578E-03 Eh
 * total energy  :   -58.2626953 Eh     change       -0.4687237E-03 Eh
 * total energy  :   -58.2627882 Eh     change       -0.9290333E-04 Eh
 * total energy  :   -58.2628336 Eh     change       -0.4546261E-04 Eh
 * total energy  :   -58.2629995 Eh     change       -0.2178733E-04 Eh
 * total energy  :   -58.2630209 Eh     change       -0.2139016E-04 Eh
 * total energy  :   -58.2630303 Eh     change       -0.9444293E-05 Eh
 * total energy  :   -58.2630407 Eh     change       -0.1034688E-04 Eh
 * total energy  :   -58.2630585 Eh     change       -0.1778852E-04 Eh
 * total energy  :   -58.2630826 Eh     change       -0.2416213E-04 Eh
 * total energy  :   -58.2631021 Eh     change       -0.1946202E-04 Eh
 * total energy  :   -58.2631095 Eh     change       -0.7415265E-05 Eh
 * total energy  :   -58.2631142 Eh     change       -0.4673992E-05 Eh
   *** GEOMETRY OPTIMIZATION CONVERGED AFTER 23 ITERATIONS ***

 final structure:
================
37
 xtb: 6.5.1 (fef0646)
N            0.94776216302993       -1.54773195846898        1.33009905407972
C            2.16778691757669       -0.90678173704337        1.81037550346686
C            3.34718493088535       -1.28362624493532        0.90266364941101
O            4.55095181143100       -0.70582050510096        1.34241947451334
C            5.21864906940757       -1.23525996703102        2.40901791403213
C            6.35664455830609       -0.51491855352598        2.83165416466353
C            6.75851507492289        0.69258560806012        2.19136042451666
C            7.85229303417326        1.37413914029570        2.60536752868559
C            7.12081442796117       -1.00059652151005        3.91719680464487
C            6.74844056553306       -2.19881204401471        4.57586314939350
C            5.62006635314154       -2.88000494537261        4.12707060025242
C            4.86847735730051       -2.40852643078784        3.06665919361063
C            7.53989080630362       -2.66188572037568        5.66690702433971
C            8.63340865840868       -1.97999684342527        6.07778943557998
C            9.03556800322294       -0.77098051522109        5.43579417421380
C           10.16007185545844       -0.05252692956603        5.84311199024564
C           10.52302462352333        1.11662715400562        5.19884855251911
C            9.77827169883778        1.59678128993317        4.13819460290009
C            8.64494196996063        0.91134930208173        3.69534094891229
C            8.26564343082960       -0.28681141208457        4.34875193313985
Cl           0.46620930352505       -0.91531253355049       -1.51657026016504
H            0.14311269322751       -1.24400766230589        1.86738925704982
H            1.01814719420301       -2.55815601718918        1.39626678985371
H            0.68479427052424       -1.18656249652345       -0.20732781923891
H            2.40754637745072       -1.17535090159726        2.84916111568130
H            2.02444917040118        0.17473419763103        1.76704884222933
H            3.17777422958062       -0.87639248537903       -0.09682451186886
H            3.43295200492792       -2.37422232830029        0.81753815627591
H            6.16163987662050        1.04443514097670        1.36466655124077
H            8.14884921876654        2.28948033009214        2.11315951833747
H            5.32516927715786       -3.79668416311730        4.61763147109514
H            4.00752779069497       -2.98081852836894        2.75674999450843
H            7.24199161637413       -3.57755443831696        6.15833270269317
H            9.22931219682317       -2.33836213115634        6.90527854696914
H           10.74895271646933       -0.42008400794777        6.67142542934937
H           11.39755866994886        1.65921526588064        5.52827259517456
H           10.06893608308635        2.51082059325303        3.64035549769670

          :  Hamiltonian                  GFN2-xTB          :
         :: total energy             -58.263114190630 Eh    ::
         :: gradient norm              0.000572772261 Eh/a0 ::
         :: HOMO-LUMO gap              2.305804811266 eV    ::
         :: SCC energy               -59.172298628637 Eh    ::
         :: -> dispersion             -0.042569362826 Eh    ::
         :: repulsion energy           0.909298518417 Eh    ::

    * Orbital Energies and Occupations

         #    Occupation            Energy/Eh            Energy/eV
      -------------------------------------------------------------
         1        2.0000           -1.0264188             -27.9303
       ...           ...                  ...                  ...
        41        2.0000           -0.4528464             -12.3226
        42        2.0000           -0.4420614             -12.0291
        43        2.0000           -0.4358142             -11.8591
        44        2.0000           -0.4304748             -11.7138
        45        2.0000           -0.4130759             -11.2404
        46        2.0000           -0.4108724             -11.1804
        47        2.0000           -0.4076327             -11.0923
        48        2.0000           -0.4049610             -11.0196
        49        2.0000           -0.4045584             -11.0086
        50        2.0000           -0.4035624             -10.9815
        51        2.0000           -0.4035488             -10.9811
        52        2.0000           -0.3915516             -10.6547
        53        2.0000           -0.3587446              -9.7619 (HOMO)
        54                         -0.2740078              -7.4561 (LUMO)
        55                         -0.2419585              -6.5840
        56                         -0.2201565              -5.9908
        57                         -0.2003036              -5.4505
        58                         -0.1806854              -4.9167
        59                         -0.1248028              -3.3961
        60                         -0.0995927              -2.7101
        61                         -0.0687296              -1.8702
        62                         -0.0255234              -0.6945
        63                         -0.0147763              -0.4021
        64                          0.0427311               1.1628
       ...                                ...                  ...
       105                          0.7329526              19.9447
      -------------------------------------------------------------
                  HL-Gap            0.0847368 Eh            2.3058 eV

     #   Z          covCN         q      C6AA      α(0)
     1   7 N        2.664    -0.316    28.121     7.876
     2   6 C        3.729     0.000    20.677     6.491
     3   6 C        3.691     0.065    19.668     6.346
     4   8 O        1.705    -0.265    18.391     5.790
     5   6 C        2.859     0.134    25.061     8.205
     6   6 C        2.983    -0.009    28.233     8.716
     7   6 C        2.913    -0.031    28.785     8.798
     8   6 C        2.914    -0.038    28.934     8.821
     9   6 C        2.996     0.003    27.953     8.673
    10   6 C        2.981     0.002    27.981     8.677
    11   6 C        2.920    -0.040    29.000     8.831
    12   6 C        2.912    -0.070    29.734     8.941
    13   6 C        2.913    -0.036    28.889     8.814
    14   6 C        2.913    -0.038    28.948     8.823
    15   6 C        2.982     0.012    27.741     8.640
    16   6 C        2.920    -0.038    28.953     8.824
    17   6 C        2.914    -0.030    28.751     8.793
    18   6 C        2.920    -0.038    28.948     8.823
    19   6 C        2.982     0.013    27.726     8.637
    20   6 C        2.998     0.004    27.921     8.668
    21  17 Cl       0.840    -0.463   114.361    16.360
    22   1 H        0.860     0.173     1.258     1.757
    23   1 H        0.860     0.166     1.294     1.782
    24   1 H        0.873     0.332     0.625     1.238
    25   1 H        0.923     0.036     2.507     2.476
    26   1 H        0.924     0.063     2.163     2.300
    27   1 H        0.924     0.078     1.998     2.210
    28   1 H        0.924     0.039     2.460     2.453
    29   1 H        0.926     0.047     2.352     2.398
    30   1 H        0.926     0.033     2.544     2.494
    31   1 H        0.926     0.033     2.539     2.492
    32   1 H        0.926     0.028     2.613     2.528
    33   1 H        0.926     0.030     2.588     2.516
    34   1 H        0.926     0.031     2.577     2.510
    35   1 H        0.926     0.030     2.585     2.514
    36   1 H        0.926     0.030     2.592     2.518
    37   1 H        0.926     0.031     2.575     2.509

Wiberg/Mayer (AO) data.
largest (>0.10) Wiberg bond orders for each atom

     #   Z sym  total        # sym  WBO       # sym  WBO       # sym  WBO
 ---------------------------------------------------------------------------
     1   7 N    3.206 --     2 C    1.012    23 H    0.958    22 H    0.957
                            24 H    0.177
     2   6 C    3.972 --     1 N    1.012     3 C    0.989    26 H    0.974
                            25 H    0.969
     3   6 C    3.947 --     2 C    0.989     4 O    0.981    27 H    0.965
                            28 H    0.963
     4   8 O    2.231 --     5 C    1.059     3 C    0.981
     5   6 C    3.900 --    12 C    1.377     6 C    1.273     4 O    1.059
     6   6 C    3.987 --     5 C    1.273     9 C    1.269     7 C    1.212
     7   6 C    3.991 --     8 C    1.646     6 C    1.212    29 H    0.966
     8   6 C    3.990 --     7 C    1.646    19 C    1.204    30 H    0.968
     9   6 C    3.990 --     6 C    1.269    20 C    1.250    10 C    1.243
    10   6 C    3.989 --    11 C    1.359     9 C    1.243    13 C    1.201
    11   6 C    3.956 --    12 C    1.442    10 C    1.359    31 H    0.969
    12   6 C    3.979 --    11 C    1.442     5 C    1.377    32 H    0.963
    13   6 C    3.991 --    14 C    1.655    10 C    1.201    33 H    0.968
    14   6 C    3.983 --    13 C    1.655    15 C    1.197    34 H    0.968
    15   6 C    3.990 --    16 C    1.360    20 C    1.253    14 C    1.197
    16   6 C    3.953 --    17 C    1.439    15 C    1.360    35 H    0.969
    17   6 C    3.986 --    18 C    1.447    16 C    1.439    36 H    0.971
    18   6 C    3.954 --    17 C    1.447    19 C    1.352    37 H    0.969
    19   6 C    3.990 --    18 C    1.352    20 C    1.255     8 C    1.204
    20   6 C    3.990 --    19 C    1.255    15 C    1.253     9 C    1.250
    21  17 Cl   0.788 --    24 H    0.709
    22   1 H    0.970 --     1 N    0.957
    23   1 H    0.972 --     1 N    0.958
    24   1 H    0.890 --    21 Cl   0.709     1 N    0.177
    25   1 H    0.999 --     2 C    0.969
    26   1 H    0.996 --     2 C    0.974
    27   1 H    0.993 --     3 C    0.965
    28   1 H    0.998 --     3 C    0.963
    29   1 H    0.997 --     7 C    0.966
    30   1 H    0.998 --     8 C    0.968
    31   1 H    0.998 --    11 C    0.969
    32   1 H    0.998 --    12 C    0.963
    33   1 H    0.998 --    13 C    0.968
    34   1 H    0.998 --    14 C    0.968
    35   1 H    0.998 --    16 C    0.969
    36   1 H    0.998 --    17 C    0.971
    37   1 H    0.998 --    18 C    0.969
 ---------------------------------------------------------------------------

molecular dipole:
                 x           y           z       tot (Debye)
 q only:        0.026      -0.451       1.656
   full:       -0.228      -0.646       1.573       4.362

           -------------------------------------------------
          | TOTAL ENERGY              -58.263114190630 Eh   |
          | GRADIENT NORM               0.000572772261 Eh/α |
          | HOMO-LUMO GAP               2.305804811266 eV   |
           -------------------------------------------------

 * finished run on 2023/01/23 at 20:55:16.376
