   * xtb version 6.5.1 (fef0646) compiled by 'conda@b96dff2e9fd6' on 2023-01-04
          program call               : xtb init.xyz --opt -c 0 -u 0 -P 16 --alpb water

   ID    Z sym.   atoms
    1    7 N      1
    2    6 C      2, 3, 5-20
    3    8 O      4
    4   17 Cl     21
    5    1 H      22-37

      * Solvation model:               ALPB
        Solvent                        water
        Solvent mass                       1.8000E+01 g/mol
          :  Hamiltonian                  GFN2-xTB          :
 * total energy  :   -58.2935845 Eh     change       -0.1668944E-08 Eh
 * total energy  :   -58.3025896 Eh     change       -0.9005077E-02 Eh
 * total energy  :   -58.3047317 Eh     change       -0.2142099E-02 Eh
 * total energy  :   -58.3052111 Eh     change       -0.4794258E-03 Eh
 * total energy  :   -58.3054739 Eh     change       -0.2628050E-03 Eh
 * total energy  :   -58.3056090 Eh     change       -0.1350532E-03 Eh
 * total energy  :   -58.3057630 Eh     change       -0.1539948E-03 Eh
 * total energy  :   -58.3059267 Eh     change       -0.1637567E-03 Eh
 * total energy  :   -58.3060673 Eh     change       -0.1406339E-03 Eh
 * total energy  :   -58.3062067 Eh     change       -0.1393910E-03 Eh
 * total energy  :   -58.3068007 Eh     change       -0.5569298E-04 Eh
 * total energy  :   -58.3068490 Eh     change       -0.4831615E-04 Eh
 * total energy  :   -58.3068850 Eh     change       -0.3596476E-04 Eh
 * total energy  :   -58.3069206 Eh     change       -0.3557314E-04 Eh
 * total energy  :   -58.3069174 Eh     change        0.3216115E-05 Eh
 * total energy  :   -58.3069493 Eh     change       -0.3195479E-04 Eh
 * total energy  :   -58.3069686 Eh     change       -0.1929794E-04 Eh
 * total energy  :   -58.3069744 Eh     change       -0.5766261E-05 Eh
 * total energy  :   -58.3069785 Eh     change       -0.4148180E-05 Eh
   *** GEOMETRY OPTIMIZATION CONVERGED AFTER 25 ITERATIONS ***

 final structure:
================
37
 xtb: 6.5.1 (fef0646)
N            0.81570503746609        1.74907839272505       -0.40487638312426
C            1.94489800169022        1.39482869040378       -1.28235764853316
C            3.27359060264963        1.57684154156623       -0.53606066468329
O            4.35263798059038        1.01729026165337       -1.25829604193373
C            4.91077763430821        1.70003627743894       -2.29908702447735
C            5.94306984291534        1.02353702849211       -2.98474007707778
C            6.35406704525753       -0.28872608556267       -2.61225025964552
C            7.34327301431850       -0.92900088228415       -3.27873651153097
C            6.58846220055338        1.66014615406410       -4.06952820128147
C            6.20494526364196        2.96616864067336       -4.46370285889749
C            5.18248318217092        3.59886966764987       -3.76038523904100
C            4.54448334193360        2.97920854387939       -2.70223884898470
C            6.87699345385121        3.58156995406577       -5.55956883890438
C            7.86664192244224        2.94125034569073       -6.22366951736742
C            8.27487569193382        1.62519021973210       -5.85273465586273
C            9.29193503987630        0.94590551783770       -6.52473335413035
C            9.66389120241905       -0.32976994694816       -6.13947700709328
C            9.03580350149627       -0.95716015071909       -5.07978431490331
C            8.01307945038913       -0.31591417059969       -4.37726435559288
C            7.62431094989087        0.98986175934801       -4.76533390936554
Cl           1.14773946955957        0.31596685308567        2.25781856936680
H           -0.07829626115221        1.50607662056050       -0.83853798836801
H            0.82358060771148        2.74386648232573       -0.16667156116725
H            0.88849418718040        1.22034681480567        0.50566818230537
H            1.92436655506648        2.00451580824290       -2.18728223609035
H            1.86720068879754        0.34381600078637       -1.56201535893870
H            3.23077134606341        1.00792632271859        0.39711354053276
H            3.46794875667033        2.62644554693361       -0.29518601566290
H            5.85095867346546       -0.75554984408277       -1.77946880508139
H            7.64748066731335       -1.92454641267843       -2.98885472294047
H            4.88223200940461        4.59463312545728       -4.05049584324515
H            3.76635084550871        3.51971567266311       -2.18984660978975
H            6.57501094816909        4.57830175821102       -5.84710577487627
H            8.37267002387946        3.41400268263086       -7.05315822981336
H            9.78956561746248        1.42791704355885       -7.35377412804683
H           10.45323452247245       -0.84032945290704       -6.67172666672599
H            9.33285698265898       -1.95323678142501       -4.78497063901177

          :  Hamiltonian                  GFN2-xTB          :
         :: total energy             -58.306978542333 Eh    ::
         :: gradient norm              0.000434743353 Eh/a0 ::
         :: HOMO-LUMO gap              2.298580173874 eV    ::
         :: SCC energy               -59.223210776709 Eh    ::
         :: -> dispersion             -0.041806533211 Eh    ::
         :: -> Gsolv                  -0.079051773586 Eh    ::
         :: repulsion energy           0.916340780332 Eh    ::

    * Orbital Energies and Occupations

         #    Occupation            Energy/Eh            Energy/eV
      -------------------------------------------------------------
         1        2.0000           -1.0083561             -27.4388
       ...           ...                  ...                  ...
        41        2.0000           -0.4457269             -12.1288
        42        2.0000           -0.4373368             -11.9005
        43        2.0000           -0.4296246             -11.6907
        44        2.0000           -0.4250595             -11.5665
        45        2.0000           -0.4064821             -11.0609
        46        2.0000           -0.4059660             -11.0469
        47        2.0000           -0.4037457             -10.9865
        48        2.0000           -0.4018055             -10.9337
        49        2.0000           -0.4016806             -10.9303
        50        2.0000           -0.4007665             -10.9054
        51        2.0000           -0.4003260             -10.8934
        52        2.0000           -0.3871964             -10.5362
        53        2.0000           -0.3541712              -9.6375 (HOMO)
        54                         -0.2696999              -7.3389 (LUMO)
        55                         -0.2375987              -6.4654
        56                         -0.2164711              -5.8905
        57                         -0.1961567              -5.3377
        58                         -0.1761149              -4.7923
        59                         -0.1210703              -3.2945
        60                         -0.0952800              -2.5927
        61                         -0.0470020              -1.2790
        62                         -0.0216467              -0.5890
        63                          0.0349379               0.9507
        64                          0.0767249               2.0878
       ...                                ...                  ...
       105                          0.7364643              20.0402
      -------------------------------------------------------------
                  HL-Gap            0.0844713 Eh            2.2986 eV

     #   Z          covCN         q      C6AA      α(0)
     1   7 N        3.483    -0.173    24.733     7.386
     2   6 C        3.729    -0.032    21.243     6.580
     3   6 C        3.689     0.056    19.812     6.371
     4   8 O        1.705    -0.285    18.738     5.844
     5   6 C        2.858     0.135    25.053     8.204
     6   6 C        2.982    -0.013    28.337     8.732
     7   6 C        2.913    -0.036    28.902     8.816
     8   6 C        2.914    -0.043    29.077     8.842
     9   6 C        2.996     0.000    28.011     8.682
    10   6 C        2.981    -0.001    28.047     8.687
    11   6 C        2.920    -0.044    29.102     8.846
    12   6 C        2.912    -0.076    29.886     8.964
    13   6 C        2.913    -0.041    29.017     8.833
    14   6 C        2.913    -0.044    29.098     8.845
    15   6 C        2.982     0.008    27.824     8.653
    16   6 C        2.920    -0.045    29.107     8.847
    17   6 C        2.914    -0.036    28.901     8.816
    18   6 C        2.920    -0.044    29.101     8.846
    19   6 C        2.982     0.009    27.817     8.651
    20   6 C        2.998     0.001    27.990     8.678
    21  17 Cl       0.060    -0.943   124.715    16.996
    22   1 H        0.859     0.315     0.671     1.283
    23   1 H        0.859     0.302     0.707     1.317
    24   1 H        0.916     0.299     0.711     1.319
    25   1 H        0.924     0.112     1.680     2.027
    26   1 H        0.924     0.113     1.674     2.023
    27   1 H        0.924     0.085     1.932     2.174
    28   1 H        0.924     0.066     2.135     2.285
    29   1 H        0.926     0.045     2.384     2.414
    30   1 H        0.926     0.032     2.554     2.499
    31   1 H        0.926     0.049     2.328     2.386
    32   1 H        0.926     0.061     2.191     2.315
    33   1 H        0.926     0.039     2.462     2.454
    34   1 H        0.926     0.034     2.536     2.490
    35   1 H        0.926     0.033     2.542     2.493
    36   1 H        0.926     0.032     2.554     2.499
    37   1 H        0.926     0.031     2.565     2.505

Wiberg/Mayer (AO) data.
largest (>0.10) Wiberg bond orders for each atom

     #   Z sym  total        # sym  WBO       # sym  WBO       # sym  WBO
 ---------------------------------------------------------------------------
     1   7 N    3.638 --     2 C    0.980    23 H    0.894    22 H    0.887
                            24 H    0.824
     2   6 C    3.930 --     3 C    0.992     1 N    0.980    26 H    0.966
                            25 H    0.964
     3   6 C    3.933 --     2 C    0.992     4 O    0.968    27 H    0.963
                            28 H    0.962
     4   8 O    2.221 --     5 C    1.062     3 C    0.968
     5   6 C    3.901 --    12 C    1.374     6 C    1.273     4 O    1.062
     6   6 C    3.987 --     5 C    1.273     9 C    1.269     7 C    1.213
     7   6 C    3.991 --     8 C    1.646     6 C    1.213    29 H    0.966
     8   6 C    3.990 --     7 C    1.646    19 C    1.204    30 H    0.968
     9   6 C    3.990 --     6 C    1.269    20 C    1.250    10 C    1.244
    10   6 C    3.989 --    11 C    1.357     9 C    1.244    13 C    1.202
    11   6 C    3.955 --    12 C    1.446    10 C    1.357    31 H    0.968
    12   6 C    3.977 --    11 C    1.446     5 C    1.374    32 H    0.960
    13   6 C    3.990 --    14 C    1.654    10 C    1.202    33 H    0.967
    14   6 C    3.982 --    13 C    1.654    15 C    1.198    34 H    0.968
    15   6 C    3.990 --    16 C    1.359    20 C    1.253    14 C    1.198
    16   6 C    3.953 --    17 C    1.439    15 C    1.359    35 H    0.969
    17   6 C    3.985 --    18 C    1.447    16 C    1.439    36 H    0.970
    18   6 C    3.954 --    17 C    1.447    19 C    1.352    37 H    0.969
    19   6 C    3.990 --    18 C    1.352    20 C    1.255     8 C    1.204
    20   6 C    3.990 --    19 C    1.255    15 C    1.253     9 C    1.250
    21  17 Cl   0.111
    22   1 H    0.901 --     1 N    0.887
    23   1 H    0.909 --     1 N    0.894
    24   1 H    0.910 --     1 N    0.824
    25   1 H    0.987 --     2 C    0.964
    26   1 H    0.987 --     2 C    0.966
    27   1 H    0.992 --     3 C    0.963
    28   1 H    0.995 --     3 C    0.962
    29   1 H    0.997 --     7 C    0.966
    30   1 H    0.998 --     8 C    0.968
    31   1 H    0.997 --    11 C    0.968
    32   1 H    0.996 --    12 C    0.960
    33   1 H    0.997 --    13 C    0.967
    34   1 H    0.998 --    14 C    0.968
    35   1 H    0.998 --    16 C    0.969
    36   1 H    0.998 --    17 C    0.970
    37   1 H    0.998 --    18 C    0.969
 ---------------------------------------------------------------------------

molecular dipole:
                 x           y           z       tot (Debye)
 q only:       -1.215       2.957      -4.447
   full:       -1.219       2.677      -3.708      12.031

           -------------------------------------------------
          | TOTAL ENERGY              -58.306978542333 Eh   |
          | GRADIENT NORM               0.000434743353 Eh/α |
          | HOMO-LUMO GAP               2.298580173874 eV   |
           -------------------------------------------------

 * finished run on 2023/01/24 at 16:47:28.541
