   * xtb version 6.5.1 (fef0646) compiled by 'conda@b96dff2e9fd6' on 2023-01-04
          program call               : xtb init.xyz --opt -c 1 -u 0 -P 16 --alpb water

   ID    Z sym.   atoms
    1    7 N      1
    2    6 C      2, 3
    3    1 H      4-11

      * Solvation model:               ALPB
        Solvent                        water
        Solvent mass                       1.8000E+01 g/mol
          :  Hamiltonian                  GFN2-xTB          :
 * total energy  :   -10.9505211 Eh     change       -0.1086065E-10 Eh
 * total energy  :   -10.9511832 Eh     change       -0.6620945E-03 Eh
 * total energy  :   -10.9512509 Eh     change       -0.6775893E-04 Eh
 * total energy  :   -10.9512591 Eh     change       -0.8212564E-05 Eh
 * total energy  :   -10.9512596 Eh     change       -0.4784485E-06 Eh
   *** GEOMETRY OPTIMIZATION CONVERGED AFTER 5 ITERATIONS ***

 final structure:
================
11
 xtb: 6.5.1 (fef0646)
N            0.95820748271139        0.01474820595550       -0.08536761011443
C            2.44382772317696        0.03123528867691       -0.09165304591986
C            2.94844869520493        1.36755399889657       -0.60835853032679
H            0.60033678036914       -0.88308121973776        0.25948932691263
H            0.60177356774810        0.17131470068221       -1.03581278392169
H            0.60213717205888        0.76689124228392        0.51654410827483
H            2.80519514301236       -0.77554202474589       -0.72855605813478
H            2.80486055634304       -0.13738920154256        0.92247361805988
H            2.61542782680134        1.54811241622290       -1.62681996019359
H            4.03398612177707        1.37533707822717       -0.61053231531589
H            2.61402893079680        2.18653951508103        0.02263325067969

          :  Hamiltonian                  GFN2-xTB          :
         :: total energy             -10.951259622069 Eh    ::
         :: gradient norm              0.000203303471 Eh/a0 ::
         :: HOMO-LUMO gap             10.894573381436 eV    ::
         :: SCC energy               -11.110122175607 Eh    ::
         :: -> dispersion             -0.003081195615 Eh    ::
         :: -> Gsolv                  -0.116283994390 Eh    ::
         :: repulsion energy           0.158861281699 Eh    ::

    * Orbital Energies and Occupations

         #    Occupation            Energy/Eh            Energy/eV
      -------------------------------------------------------------
         1        2.0000           -0.6912635             -18.8102
         2        2.0000           -0.6432145             -17.5028
         3        2.0000           -0.6054456             -16.4750
         4        2.0000           -0.5887246             -16.0200
         5        2.0000           -0.5774202             -15.7124
         6        2.0000           -0.5434395             -14.7877
         7        2.0000           -0.5026285             -13.6772
         8        2.0000           -0.4778972             -13.0042
         9        2.0000           -0.4648222             -12.6485
        10        2.0000           -0.4469248             -12.1614 (HOMO)
        11                         -0.0465566              -1.2669 (LUMO)
        12                          0.0585075               1.5921
        13                          0.0991434               2.6978
        14                          0.1106906               3.0120
        15                          0.1348359               3.6691
        16                          0.1846707               5.0251
        17                          0.1960323               5.3343
        18                          0.2118518               5.7648
        19                          0.2474929               6.7346
        20                          0.2811739               7.6511
      -------------------------------------------------------------
                  HL-Gap            0.4003682 Eh           10.8946 eV

     #   Z          covCN         q      C6AA      α(0)
     1   7 N        3.485    -0.162    24.491     7.350
     2   6 C        3.730    -0.031    21.220     6.576
     3   6 C        3.753    -0.148    23.427     6.902
     4   1 H        0.859     0.312     0.678     1.290
     5   1 H        0.859     0.308     0.691     1.302
     6   1 H        0.859     0.308     0.691     1.302
     7   1 H        0.925     0.105     1.742     2.064
     8   1 H        0.925     0.105     1.742     2.064
     9   1 H        0.925     0.069     2.096     2.264
    10   1 H        0.925     0.066     2.134     2.284
    11   1 H        0.925     0.069     2.095     2.264

Wiberg/Mayer (AO) data.
largest (>0.10) Wiberg bond orders for each atom

     #   Z sym  total        # sym  WBO       # sym  WBO       # sym  WBO
 ---------------------------------------------------------------------------
     1   7 N    3.654 --     2 C    0.963     6 H    0.890     5 H    0.890
                             4 H    0.889
     2   6 C    3.928 --     3 C    1.026     7 H    0.968     8 H    0.968
                             1 N    0.963
     3   6 C    3.985 --     2 C    1.026     9 H    0.982    11 H    0.982
                            10 H    0.978
     4   1 H    0.903 --     1 N    0.889
     5   1 H    0.905 --     1 N    0.890
     6   1 H    0.905 --     1 N    0.890
     7   1 H    0.989 --     2 C    0.968
     8   1 H    0.989 --     2 C    0.968
     9   1 H    0.995 --     3 C    0.982
    10   1 H    0.996 --     3 C    0.978
    11   1 H    0.995 --     3 C    0.982
 ---------------------------------------------------------------------------

molecular dipole:
                 x           y           z       tot (Debye)
 q only:        2.086       0.112      -0.194
   full:        1.975       0.107      -0.192       5.052

           -------------------------------------------------
          | TOTAL ENERGY              -10.951259622069 Eh   |
          | GRADIENT NORM               0.000203303471 Eh/α |
          | HOMO-LUMO GAP              10.894573381436 eV   |
           -------------------------------------------------

 * finished run on 2023/01/24 at 14:55:56.244
