   * xtb version 6.5.1 (fef0646) compiled by 'conda@b96dff2e9fd6' on 2023-01-04
          program call               : xtb init.xyz --opt -c 1 -u 0 -P 16 --input xtb.inp

   ID    Z sym.   atoms
    1    7 N      1
    2    6 C      2-6
    3   16 S      7
    4    1 H      8-15

          :  Hamiltonian                  GFN2-xTB          :
 * total energy  :   -20.4877296 Eh     change       -0.8149925E-10 Eh
 * total energy  :   -20.4896753 Eh     change       -0.1945658E-02 Eh
 * total energy  :   -20.4899236 Eh     change       -0.2483414E-03 Eh
 * total energy  :   -20.4899739 Eh     change       -0.5024382E-04 Eh
 * total energy  :   -20.4899889 Eh     change       -0.1508047E-04 Eh
 * total energy  :   -20.4899934 Eh     change       -0.4425294E-05 Eh
   *** GEOMETRY OPTIMIZATION CONVERGED AFTER 6 ITERATIONS ***

 final structure:
================
15
 xtb: 6.5.1 (fef0646)
N            3.38843989010484       -0.84472385029131       -0.88177558133110
C            2.42244047980040       -0.09718858219695        0.00653824534109
C            2.92289258522651       -0.10095231120256        1.40463704276076
C            3.28998708968728        0.95376815308047        2.18708054764053
C            3.71782508419024        0.55221637423716        3.47100231108514
C            3.68380762240876       -0.79350638573204        3.64212016748843
S            3.10704249539733       -1.61457099435386        2.25520371747104
H            3.05158495879538       -0.89932773254173       -1.85088277277875
H            3.50421815099970       -1.79625050033836       -0.50456726043676
H            4.30692717117115       -0.38252735211518       -0.86730376153453
H            1.45561947392710       -0.59985880778432       -0.07077024127665
H            2.32473582556133        0.92583796480840       -0.35952102472068
H            3.24464603917320        1.98003928491402        1.87042362007721
H            4.03993699532585        1.23716327825829        4.23308624147205
H            3.96062613823093       -1.36517853874203        4.50566874874221

          :  Hamiltonian                  GFN2-xTB          :
         :: total energy             -20.489993371016 Eh    ::
         :: gradient norm              0.000856319500 Eh/a0 ::
         :: HOMO-LUMO gap              3.832394872142 eV    ::
         :: SCC energy               -20.792258149511 Eh    ::
         :: -> dispersion             -0.010419452744 Eh    ::
         :: repulsion energy           0.302245491648 Eh    ::

    * Orbital Energies and Occupations

         #    Occupation            Energy/Eh            Energy/eV
      -------------------------------------------------------------
         1        2.0000           -0.8938001             -24.3215
       ...           ...                  ...                  ...
         7        2.0000           -0.7649726             -20.8160
         8        2.0000           -0.7358482             -20.0234
         9        2.0000           -0.7083105             -19.2741
        10        2.0000           -0.6997354             -19.0408
        11        2.0000           -0.6769499             -18.4207
        12        2.0000           -0.6669557             -18.1488
        13        2.0000           -0.6245779             -16.9956
        14        2.0000           -0.6210371             -16.8993
        15        2.0000           -0.6021668             -16.3858
        16        2.0000           -0.5983879             -16.2830
        17        2.0000           -0.5843224             -15.9002
        18        2.0000           -0.5385196             -14.6539
        19        2.0000           -0.5331251             -14.5071 (HOMO)
        20                         -0.3922872             -10.6747 (LUMO)
        21                         -0.3454617              -9.4005
        22                         -0.3115726              -8.4783
        23                         -0.2634299              -7.1683
        24                         -0.2485589              -6.7636
        25                         -0.1693131              -4.6072
        26                         -0.1454682              -3.9584
        27                         -0.1103680              -3.0033
        28                         -0.1085687              -2.9543
        29                         -0.0864683              -2.3529
        30                         -0.0725821              -1.9751
       ...                                ...                  ...
        41                          0.5568036              15.1514
      -------------------------------------------------------------
                  HL-Gap            0.1408379 Eh            3.8324 eV

     #   Z          covCN         q      C6AA      α(0)
     1   7 N        3.482    -0.136    23.938     7.267
     2   6 C        3.754    -0.032    21.208     6.567
     3   6 C        2.992    -0.019    28.480     8.754
     4   6 C        3.100    -0.040    28.873     8.805
     5   6 C        3.118    -0.036    28.716     8.777
     6   6 C        2.939    -0.008    28.218     8.712
     7  16 S        2.316     0.002   140.973    19.983
     8   1 H        0.859     0.272     0.804     1.405
     9   1 H        0.859     0.281     0.774     1.378
    10   1 H        0.859     0.274     0.798     1.399
    11   1 H        0.924     0.115     1.655     2.012
    12   1 H        0.924     0.115     1.658     2.014
    13   1 H        0.926     0.066     2.129     2.282
    14   1 H        0.926     0.075     2.036     2.231
    15   1 H        0.926     0.074     2.040     2.233

Wiberg/Mayer (AO) data.
largest (>0.10) Wiberg bond orders for each atom

     #   Z sym  total        # sym  WBO       # sym  WBO       # sym  WBO
 ---------------------------------------------------------------------------
     1   7 N    3.671 --     8 H    0.911    10 H    0.910     2 C    0.907
                             9 H    0.904
     2   6 C    3.895 --     3 C    1.032    12 H    0.962    11 H    0.958
                             1 N    0.907
     3   6 C    3.928 --     4 C    1.577     7 S    1.151     2 C    1.032
                             6 C    0.115
     4   6 C    3.987 --     3 C    1.577     5 C    1.280    13 H    0.960
                             7 S    0.112
     5   6 C    3.987 --     6 C    1.632     4 C    1.280    14 H    0.959
     6   6 C    3.951 --     5 C    1.632     7 S    1.204    15 H    0.967
                             3 C    0.115
     7  16 S    2.632 --     6 C    1.204     3 C    1.151     4 C    0.112
     8   1 H    0.925 --     1 N    0.911
     9   1 H    0.921 --     1 N    0.904
    10   1 H    0.925 --     1 N    0.910
    11   1 H    0.987 --     2 C    0.958
    12   1 H    0.987 --     2 C    0.962
    13   1 H    0.996 --     4 C    0.960
    14   1 H    0.994 --     5 C    0.959
    15   1 H    0.994 --     6 C    0.967
 ---------------------------------------------------------------------------

molecular dipole:
                 x           y           z       tot (Debye)
 q only:        6.326      -1.189      -0.570
   full:        6.444      -1.100      -0.421      16.649

           -------------------------------------------------
          | TOTAL ENERGY              -20.489993371016 Eh   |
          | GRADIENT NORM               0.000856319500 Eh/α |
          | HOMO-LUMO GAP               3.832394872142 eV   |
           -------------------------------------------------

 * finished run on 2023/01/23 at 18:53:44.398
