   * xtb version 6.5.1 (fef0646) compiled by 'conda@b96dff2e9fd6' on 2023-01-04
          program call               : xtb init.xyz --opt -c 0 -u 0 -P 16 --alpb water

   ID    Z sym.   atoms
    1    7 N      1
    2    6 C      2-5
    3   17 Cl     6
    4    1 H      7-16

      * Solvation model:               ALPB
        Solvent                        water
        Solvent mass                       1.8000E+01 g/mol
          :  Hamiltonian                  GFN2-xTB          :
 * total energy  :   -21.1470082 Eh     change       -0.1103796E-08 Eh
 * total energy  :   -21.1541373 Eh     change       -0.7129031E-02 Eh
 * total energy  :   -21.1555417 Eh     change       -0.1404415E-02 Eh
 * total energy  :   -21.1563717 Eh     change       -0.8300538E-03 Eh
 * total energy  :   -21.1567646 Eh     change       -0.3928495E-03 Eh
 * total energy  :   -21.1571230 Eh     change       -0.3583749E-03 Eh
 * total energy  :   -21.1575787 Eh     change       -0.4557412E-03 Eh
 * total energy  :   -21.1579044 Eh     change       -0.3257112E-03 Eh
 * total energy  :   -21.1580496 Eh     change       -0.1451792E-03 Eh
 * total energy  :   -21.1581044 Eh     change       -0.5481685E-04 Eh
 * total energy  :   -21.1581336 Eh     change       -0.2917692E-04 Eh
 * total energy  :   -21.1581685 Eh     change       -0.3491734E-04 Eh
 * total energy  :   -21.1581881 Eh     change       -0.1958855E-04 Eh
 * total energy  :   -21.1582164 Eh     change       -0.2834701E-04 Eh
 * total energy  :   -21.1582256 Eh     change       -0.9187893E-05 Eh
 * total energy  :   -21.1582340 Eh     change       -0.8334984E-05 Eh
 * total energy  :   -21.1582402 Eh     change       -0.6201388E-05 Eh
 * total energy  :   -21.1582440 Eh     change       -0.3840814E-05 Eh
   *** GEOMETRY OPTIMIZATION CONVERGED AFTER 18 ITERATIONS ***

 final structure:
================
16
 xtb: 6.5.1 (fef0646)
N            1.13306230333993       -0.05901455288197       -0.32032111382879
C            2.60232303906411       -0.14430206662906       -0.24864664875945
C            3.14739459944222       -1.16892177635880        0.75230673059818
C            4.09855726058316       -0.09333774480316        1.30123898523741
C            3.27947330795656        0.97169306990892        0.55433574912620
Cl          -0.12085675661078        0.43034794507982        2.42820060963236
H            0.72712008089591       -0.92473124274688       -0.68488694665763
H            0.83518782687217        0.73256008856167       -0.89589682847162
H            0.73332225513911        0.09349457669006        0.64320760345748
H            3.01146853662042       -0.26298458616174       -1.25220607048931
H            3.60622893443738       -2.06365530510285        0.34205394142757
H            2.39160941534508       -1.44424461748200        1.48380257503881
H            5.11237977835563       -0.19066552003914        0.92160495160464
H            4.13016091869468        0.00485858641540        2.38272565014587
H            3.83872658072787        1.71496189973747       -0.00582935117036
H            2.56888191913588        1.46502124581170        1.21327016310819

          :  Hamiltonian                  GFN2-xTB          :
         :: total energy             -21.158244004604 Eh    ::
         :: gradient norm              0.000509843336 Eh/a0 ::
         :: HOMO-LUMO gap             10.269403052652 eV    ::
         :: SCC energy               -21.387552583729 Eh    ::
         :: -> dispersion             -0.009154116030 Eh    ::
         :: -> Gsolv                  -0.069761805139 Eh    ::
         :: repulsion energy           0.229274753641 Eh    ::

    * Orbital Energies and Occupations

         #    Occupation            Energy/Eh            Energy/eV
      -------------------------------------------------------------
         1        2.0000           -1.0065847             -27.3906
       ...           ...                  ...                  ...
         7        2.0000           -0.5566465             -15.1471
         8        2.0000           -0.5548965             -15.0995
         9        2.0000           -0.5297569             -14.4154
        10        2.0000           -0.5136016             -13.9758
        11        2.0000           -0.4823822             -13.1263
        12        2.0000           -0.4720408             -12.8449
        13        2.0000           -0.4620441             -12.5729
        14        2.0000           -0.4326238             -11.7723
        15        2.0000           -0.4223099             -11.4916
        16        2.0000           -0.4189038             -11.3990
        17        2.0000           -0.4020481             -10.9403
        18        2.0000           -0.4004929             -10.8980
        19        2.0000           -0.3999165             -10.8823 (HOMO)
        20                         -0.0225228              -0.6129 (LUMO)
        21                          0.0376353               1.0241
        22                          0.0385470               1.0489
        23                          0.0672090               1.8288
        24                          0.0691913               1.8828
        25                          0.1048206               2.8523
        26                          0.1169431               3.1822
        27                          0.1171253               3.1871
        28                          0.1192775               3.2457
        29                          0.1194340               3.2500
        30                          0.1238583               3.3704
       ...                                ...                  ...
        39                          0.3944560              10.7337
      -------------------------------------------------------------
                  HL-Gap            0.3773936 Eh           10.2694 eV

     #   Z          covCN         q      C6AA      α(0)
     1   7 N        3.483    -0.180    24.875     7.408
     2   6 C        3.981     0.028    20.027     6.358
     3   6 C        4.002    -0.082    21.978     6.660
     4   6 C        3.999    -0.065    21.672     6.614
     5   6 C        4.002    -0.082    21.975     6.660
     6  17 Cl       0.048    -0.948   124.892    17.008
     7   1 H        0.859     0.302     0.707     1.317
     8   1 H        0.859     0.302     0.708     1.319
     9   1 H        0.904     0.297     0.720     1.327
    10   1 H        0.924     0.097     1.809     2.103
    11   1 H        0.925     0.060     2.205     2.322
    12   1 H        0.925     0.064     2.152     2.294
    13   1 H        0.925     0.050     2.319     2.381
    14   1 H        0.925     0.034     2.536     2.491
    15   1 H        0.925     0.058     2.220     2.330
    16   1 H        0.925     0.064     2.150     2.293

Wiberg/Mayer (AO) data.
largest (>0.10) Wiberg bond orders for each atom

     #   Z sym  total        # sym  WBO       # sym  WBO       # sym  WBO
 ---------------------------------------------------------------------------
     1   7 N    3.640 --     2 C    0.959     8 H    0.893     7 H    0.892
                             9 H    0.828
     2   6 C    3.933 --     5 C    0.996     3 C    0.996    10 H    0.962
                             1 N    0.959
     3   6 C    3.985 --     4 C    1.003     2 C    0.996    11 H    0.979
                            12 H    0.976
     4   6 C    3.991 --     5 C    1.003     3 C    1.003    14 H    0.984
                            13 H    0.982
     5   6 C    3.986 --     4 C    1.003     2 C    0.996    15 H    0.979
                            16 H    0.975
     6  17 Cl   0.102
     7   1 H    0.909 --     1 N    0.892
     8   1 H    0.909 --     1 N    0.893
     9   1 H    0.912 --     1 N    0.828
    10   1 H    0.991 --     2 C    0.962
    11   1 H    0.996 --     3 C    0.979
    12   1 H    0.996 --     3 C    0.976
    13   1 H    0.997 --     4 C    0.982
    14   1 H    0.999 --     4 C    0.984
    15   1 H    0.997 --     5 C    0.979
    16   1 H    0.996 --     5 C    0.975
 ---------------------------------------------------------------------------

molecular dipole:
                 x           y           z       tot (Debye)
 q only:        2.504      -0.881      -4.784
   full:        1.998      -0.753      -4.174      11.918

           -------------------------------------------------
          | TOTAL ENERGY              -21.158244004604 Eh   |
          | GRADIENT NORM               0.000509843336 Eh/α |
          | HOMO-LUMO GAP              10.269403052652 eV   |
           -------------------------------------------------

 * finished run on 2023/01/24 at 14:55:52.614
