   * xtb version 6.5.1 (fef0646) compiled by 'conda@b96dff2e9fd6' on 2023-01-04
          program call               : xtb init.xyz --opt -c 1 -u 0 -P 16

   ID    Z sym.   atoms
    1    7 N      1
    2    6 C      2-5
    3    1 H      6-17

          :  Hamiltonian                  GFN2-xTB          :
 * total energy  :   -17.1711990 Eh     change       -0.8171241E-11 Eh
 * total energy  :   -17.1725483 Eh     change       -0.1349266E-02 Eh
 * total energy  :   -17.1727534 Eh     change       -0.2050571E-03 Eh
 * total energy  :   -17.1728038 Eh     change       -0.5041133E-04 Eh
 * total energy  :   -17.1728339 Eh     change       -0.3014347E-04 Eh
 * total energy  :   -17.1728584 Eh     change       -0.2450645E-04 Eh
 * total energy  :   -17.1728827 Eh     change       -0.2431801E-04 Eh
 * total energy  :   -17.1728886 Eh     change       -0.5837621E-05 Eh
 * total energy  :   -17.1728906 Eh     change       -0.1990837E-05 Eh
   *** GEOMETRY OPTIMIZATION CONVERGED AFTER 9 ITERATIONS ***

 final structure:
================
17
 xtb: 6.5.1 (fef0646)
N            0.90862223728001        0.05229850243102        0.04945388314884
C            2.40285812829948        0.00613497891070        0.07909433558657
C            2.89562015801448       -1.23047770809178        0.83428445287994
C            2.39920176921872       -2.51229766378044        0.16730713537608
C            4.42216193670887       -1.19886811960399        0.86864682523084
H            0.56266455538742        0.84322000156003       -0.50649613189852
H            0.54020161836378        0.12963665937780        1.00616952410577
H            0.56772180797021       -0.83039970915867       -0.35916674970509
H            2.77176833505787        0.91614797290453        0.55355778244984
H            2.76504042505955       -0.02238319156344       -0.95008624762075
H            2.52486881647978       -1.19134885115194        1.86391402388033
H            2.66249567220565       -2.52663587894940       -0.88787744672825
H            1.32433099981160       -2.65573057570427        0.27361791628935
H            2.87556122731956       -3.36959941666769        0.63331714524146
H            4.83029844620386       -1.26475893486114       -0.13608927042840
H            4.79926650685606       -2.03869877792311        1.44326469258551
H            4.78346735976310       -0.28480928772821        1.33135812960646

          :  Hamiltonian                  GFN2-xTB          :
         :: total energy             -17.172890573014 Eh    ::
         :: gradient norm              0.000302831327 Eh/a0 ::
         :: HOMO-LUMO gap              8.681602047392 eV    ::
         :: SCC energy               -17.424234716747 Eh    ::
         :: -> dispersion             -0.007747320109 Eh    ::
         :: repulsion energy           0.251322091713 Eh    ::

    * Orbital Energies and Occupations

         #    Occupation            Energy/Eh            Energy/eV
      -------------------------------------------------------------
         1        2.0000           -0.8946296             -24.3441
       ...           ...                  ...                  ...
         4        2.0000           -0.8009615             -21.7953
         5        2.0000           -0.7813232             -21.2609
         6        2.0000           -0.7464429             -20.3117
         7        2.0000           -0.7249511             -19.7269
         8        2.0000           -0.7109785             -19.3467
         9        2.0000           -0.6854567             -18.6522
        10        2.0000           -0.6596237             -17.9493
        11        2.0000           -0.6420336             -17.4706
        12        2.0000           -0.6210299             -16.8991
        13        2.0000           -0.6033560             -16.4182
        14        2.0000           -0.5958235             -16.2132
        15        2.0000           -0.5867858             -15.9673
        16        2.0000           -0.5813765             -15.8201 (HOMO)
        17                         -0.2623334              -7.1385 (LUMO)
        18                         -0.1613344              -4.3901
        19                         -0.1073568              -2.9213
        20                         -0.1001747              -2.7259
        21                         -0.0685055              -1.8641
        22                         -0.0633299              -1.7233
        23                         -0.0175659              -0.4780
        24                         -0.0156067              -0.4247
        25                          0.0170407               0.4637
        26                          0.0515511               1.4028
        27                          0.0656834               1.7873
       ...                                ...                  ...
        32                          0.1463404               3.9821
      -------------------------------------------------------------
                  HL-Gap            0.3190430 Eh            8.6816 eV

     #   Z          covCN         q      C6AA      α(0)
     1   7 N        3.483    -0.129    23.796     7.245
     2   6 C        3.736    -0.040    21.375     6.598
     3   6 C        3.850    -0.021    20.922     6.506
     4   6 C        3.755    -0.133    23.120     6.856
     5   6 C        3.758    -0.128    23.008     6.839
     6   1 H        0.859     0.268     0.817     1.416
     7   1 H        0.859     0.269     0.813     1.413
     8   1 H        0.859     0.277     0.788     1.390
     9   1 H        0.924     0.104     1.751     2.069
    10   1 H        0.924     0.107     1.721     2.051
    11   1 H        0.924     0.057     2.241     2.341
    12   1 H        0.925     0.058     2.219     2.330
    13   1 H        0.925     0.035     2.520     2.482
    14   1 H        0.925     0.082     1.958     2.188
    15   1 H        0.925     0.062     2.179     2.308
    16   1 H        0.925     0.076     2.016     2.220
    17   1 H        0.925     0.058     2.225     2.332

Wiberg/Mayer (AO) data.
largest (>0.10) Wiberg bond orders for each atom

     #   Z sym  total        # sym  WBO       # sym  WBO       # sym  WBO
 ---------------------------------------------------------------------------
     1   7 N    3.675 --     2 C    0.923     6 H    0.914     7 H    0.912
                             8 H    0.896
     2   6 C    3.884 --     3 C    0.991     9 H    0.967    10 H    0.965
                             1 N    0.923
     3   6 C    3.983 --     4 C    1.008     5 C    1.001     2 C    0.991
                            11 H    0.965
     4   6 C    3.989 --     3 C    1.008    12 H    0.984    14 H    0.978
                            13 H    0.978
     5   6 C    3.985 --     3 C    1.001    15 H    0.984    17 H    0.983
                            16 H    0.980
     6   1 H    0.928 --     1 N    0.914
     7   1 H    0.928 --     1 N    0.912
     8   1 H    0.924 --     1 N    0.896
     9   1 H    0.989 --     2 C    0.967
    10   1 H    0.989 --     2 C    0.965
    11   1 H    0.997 --     3 C    0.965
    12   1 H    0.997 --     4 C    0.984
    13   1 H    0.999 --     4 C    0.978
    14   1 H    0.993 --     4 C    0.978
    15   1 H    0.996 --     5 C    0.984
    16   1 H    0.994 --     5 C    0.980
    17   1 H    0.997 --     5 C    0.983
 ---------------------------------------------------------------------------

molecular dipole:
                 x           y           z       tot (Debye)
 q only:        2.640      -0.382       0.235
   full:        2.345      -0.287       0.205       6.027

           -------------------------------------------------
          | TOTAL ENERGY              -17.172890573014 Eh   |
          | GRADIENT NORM               0.000302831327 Eh/α |
          | HOMO-LUMO GAP               8.681602047392 eV   |
           -------------------------------------------------

 * finished run on 2023/01/23 at 13:43:31.236
