   * xtb version 6.5.1 (fef0646) compiled by 'conda@b96dff2e9fd6' on 2023-01-04
          program call               : xtb init.xyz --opt -c 0 -u 0 -P 16 --alpb water

   ID    Z sym.   atoms
    1    7 N      1, 10, 11
    2    6 C      2-9, 12-17
    3   17 Cl     18
    4    1 H      19-34

      * Solvation model:               ALPB
        Solvent                        water
        Solvent mass                       1.8000E+01 g/mol
          :  Hamiltonian                  GFN2-xTB          :
 * total energy  :   -51.4154309 Eh     change       -0.2128658E-08 Eh
 * total energy  :   -51.4222064 Eh     change       -0.6775534E-02 Eh
 * total energy  :   -51.4244683 Eh     change       -0.2261897E-02 Eh
 * total energy  :   -51.4255167 Eh     change       -0.1048394E-02 Eh
 * total energy  :   -51.4265767 Eh     change       -0.1059983E-02 Eh
 * total energy  :   -51.4273293 Eh     change       -0.7525989E-03 Eh
 * total energy  :   -51.4278550 Eh     change       -0.5257079E-03 Eh
 * total energy  :   -51.4280848 Eh     change       -0.2297441E-03 Eh
 * total energy  :   -51.4281961 Eh     change       -0.1113354E-03 Eh
 * total energy  :   -51.4282916 Eh     change       -0.9550592E-04 Eh
 * total energy  :   -51.4303316 Eh     change       -0.5542838E-04 Eh
 * total energy  :   -51.4303700 Eh     change       -0.3845042E-04 Eh
 * total energy  :   -51.4303903 Eh     change       -0.2023498E-04 Eh
 * total energy  :   -51.4304169 Eh     change       -0.2666019E-04 Eh
 * total energy  :   -51.4304305 Eh     change       -0.1356551E-04 Eh
 * total energy  :   -51.4304391 Eh     change       -0.8619281E-05 Eh
 * total energy  :   -51.4304543 Eh     change       -0.1516409E-04 Eh
 * total energy  :   -51.4304631 Eh     change       -0.8805661E-05 Eh
 * total energy  :   -51.4304664 Eh     change       -0.3256794E-05 Eh
   *** GEOMETRY OPTIMIZATION CONVERGED AFTER 34 ITERATIONS ***

 final structure:
================
34
 xtb: 6.5.1 (fef0646)
N            2.51740712063425       -1.83583070771085        1.83251434018879
C            2.28856020718324       -2.43516194345334        0.50292023547194
C            2.94796505340039       -1.56953880170468       -0.57088016228545
C            4.44387208231700       -1.58042424476965       -0.44182315952463
C            5.20580538380346       -2.55973663650900       -1.07662295713693
C            6.57577804661554       -2.58690269963493       -0.94094753280089
C            5.08699886518305       -0.62204524895762        0.33988690666050
C            6.45907721034569       -0.63210520541251        0.47673751294925
C            7.22215822617711       -1.62062967038280       -0.15667629012497
N            8.58895677352045       -1.53904967755253        0.01716186625522
N            9.28074102655548       -2.52400168206159       -0.40570975333116
C           10.65383460880784       -2.41633940575339       -0.27196859881324
C           11.32207156094406       -1.25191902954522        0.12940679082265
C           12.69817204307164       -1.24232731417887        0.20883080121198
C           13.42539039962372       -2.38271452907649       -0.10533772485317
C           12.77083611514453       -3.53859367869666       -0.50499172117707
C           11.39369496784594       -3.55938642732483       -0.59348756847237
Cl           1.81933577812124        1.14290519489384        1.81393670010873
H            2.01314063886391       -2.33451349315084        2.56849603377587
H            2.20099946612304       -0.83139575046941        1.83348825628268
H            3.51795474353367       -1.81794685192620        2.04768808734023
H            1.21628840626715       -2.47536572660909        0.31823557491535
H            2.70278429421360       -3.44400374766299        0.48198838726174
H            2.57781595503160       -0.54956810177953       -0.45919671188479
H            2.65948927820029       -1.94201577749370       -1.55259945642243
H            4.71599253929359       -3.30031539606070       -1.69108921999373
H            7.17759407351385       -3.33208079662042       -1.43777723614353
H            4.50233401299890        0.14939953963351        0.82149005000555
H            6.96652135542737        0.10936216971866        1.07410065705568
H           10.73764646116719       -0.37586407993734        0.36588535519245
H           13.21197346397471       -0.34367141709868        0.51612095071784
H           14.50252047063469       -2.36765519534917       -0.04037077730308
H           13.33923883682123       -4.42274216624261       -0.74985551940418
H           10.86463053463990       -4.44753150112068       -0.90116411654637

          :  Hamiltonian                  GFN2-xTB          :
         :: total energy             -51.430466353727 Eh    ::
         :: gradient norm              0.000670796315 Eh/a0 ::
         :: HOMO-LUMO gap              0.761765753613 eV    ::
         :: SCC energy               -52.210092438735 Eh    ::
         :: -> dispersion             -0.032184904105 Eh    ::
         :: -> Gsolv                  -0.078145731947 Eh    ::
         :: repulsion energy           0.779872126508 Eh    ::

    * Orbital Energies and Occupations

         #    Occupation            Energy/Eh            Energy/eV
      -------------------------------------------------------------
         1        2.0000           -1.0067339             -27.3946
       ...           ...                  ...                  ...
        35        2.0000           -0.4472386             -12.1700
        36        2.0000           -0.4348961             -11.8341
        37        2.0000           -0.4313319             -11.7371
        38        2.0000           -0.4233618             -11.5203
        39        2.0000           -0.4204871             -11.4420
        40        2.0000           -0.4175948             -11.3633
        41        2.0000           -0.4104362             -11.1685
        42        2.0000           -0.4091006             -11.1322
        43        2.0000           -0.4027151             -10.9584
        44        2.0000           -0.4002918             -10.8925
        45        2.0000           -0.3996026             -10.8737
        46        2.0000           -0.3867569             -10.5242
        47        2.0000           -0.3360477              -9.1443 (HOMO)
        48        0.0000           -0.3080533              -8.3826 (LUMO)
        49                         -0.2273120              -6.1855
        50                         -0.2255947              -6.1387
        51                         -0.2179399              -5.9304
        52                         -0.1930601              -5.2534
        53                         -0.0939197              -2.5557
        54                         -0.0850777              -2.3151
        55                         -0.0229950              -0.6257
        56                          0.0785607               2.1377
        57                          0.0836371               2.2759
        58                          0.0917779               2.4974
       ...                                ...                  ...
        93                          0.6619909              18.0137
      -------------------------------------------------------------
                  HL-Gap            0.0279944 Eh            0.7618 eV

     #   Z          covCN         q      C6AA      α(0)
     1   7 N        3.484    -0.166    24.576     7.363
     2   6 C        3.733    -0.025    21.112     6.558
     3   6 C        3.810    -0.090    22.204     6.707
     4   6 C        2.970     0.025    27.452     8.594
     5   6 C        2.920    -0.042    29.052     8.839
     6   6 C        2.916    -0.038    28.951     8.823
     7   6 C        2.920    -0.044    29.090     8.845
     8   6 C        2.925    -0.037    28.930     8.821
     9   6 C        2.939     0.069    26.453     8.435
    10   7 N        1.942    -0.173    25.533     7.493
    11   7 N        1.942    -0.172    25.519     7.491
    12   6 C        2.939     0.072    26.384     8.424
    13   6 C        2.918    -0.038    28.943     8.822
    14   6 C        2.917    -0.033    28.824     8.804
    15   6 C        2.920    -0.029    28.733     8.790
    16   6 C        2.917    -0.034    28.839     8.806
    17   6 C        2.927    -0.039    28.969     8.827
    18  17 Cl       0.046    -0.946   124.841    17.005
    19   1 H        0.859     0.306     0.695     1.306
    20   1 H        0.903     0.299     0.714     1.322
    21   1 H        0.859     0.283     0.767     1.372
    22   1 H        0.925     0.111     1.691     2.034
    23   1 H        0.924     0.108     1.710     2.045
    24   1 H        0.924     0.078     1.999     2.211
    25   1 H        0.925     0.082     1.957     2.188
    26   1 H        0.926     0.060     2.197     2.318
    27   1 H        0.926     0.053     2.280     2.361
    28   1 H        0.926     0.058     2.222     2.331
    29   1 H        0.926     0.047     2.358     2.401
    30   1 H        0.926     0.051     2.313     2.378
    31   1 H        0.926     0.045     2.381     2.413
    32   1 H        0.926     0.051     2.313     2.378
    33   1 H        0.926     0.051     2.309     2.376
    34   1 H        0.926     0.059     2.214     2.327

Wiberg/Mayer (AO) data.
largest (>0.10) Wiberg bond orders for each atom

     #   Z sym  total        # sym  WBO       # sym  WBO       # sym  WBO
 ---------------------------------------------------------------------------
     1   7 N    3.646 --     2 C    0.969    21 H    0.899    19 H    0.892
                            20 H    0.829
     2   6 C    3.926 --     3 C    0.991     1 N    0.969    23 H    0.966
                            22 H    0.966
     3   6 C    3.988 --     4 C    1.017     2 C    0.991    24 H    0.964
                            25 H    0.962
     4   6 C    3.966 --     7 C    1.389     5 C    1.384     3 C    1.017
     5   6 C    3.988 --     6 C    1.485     4 C    1.384    26 H    0.965
     6   6 C    3.982 --     5 C    1.485     9 C    1.322    27 H    0.966
     7   6 C    3.988 --     8 C    1.474     4 C    1.389    28 H    0.964
     8   6 C    3.974 --     7 C    1.474     9 C    1.330    29 H    0.968
     9   6 C    3.976 --     8 C    1.330     6 C    1.322    10 N    1.161
    10   7 N    3.032 --    11 N    1.642     9 C    1.161
    11   7 N    3.026 --    10 N    1.642    12 C    1.153
    12   6 C    3.979 --    17 C    1.338    13 C    1.330    11 N    1.153
    13   6 C    3.982 --    14 C    1.476    12 C    1.330    30 H    0.967
                            16 C    0.101
    14   6 C    3.991 --    13 C    1.476    15 C    1.417    31 H    0.969
    15   6 C    3.967 --    16 C    1.426    14 C    1.417    32 H    0.970
    16   6 C    3.990 --    17 C    1.466    15 C    1.426    33 H    0.969
                            13 C    0.101
    17   6 C    3.972 --    16 C    1.466    12 C    1.338    34 H    0.967
    18  17 Cl   0.104
    19   1 H    0.906 --     1 N    0.892
    20   1 H    0.911 --     1 N    0.829
    21   1 H    0.920 --     1 N    0.899
    22   1 H    0.987 --     2 C    0.966
    23   1 H    0.988 --     2 C    0.966
    24   1 H    0.993 --     3 C    0.964
    25   1 H    0.992 --     3 C    0.962
    26   1 H    0.996 --     5 C    0.965
    27   1 H    0.997 --     6 C    0.966
    28   1 H    0.996 --     7 C    0.964
    29   1 H    0.997 --     8 C    0.968
    30   1 H    0.997 --    13 C    0.967
    31   1 H    0.998 --    14 C    0.969
    32   1 H    0.997 --    15 C    0.970
    33   1 H    0.997 --    16 C    0.969
    34   1 H    0.997 --    17 C    0.967
 ---------------------------------------------------------------------------

molecular dipole:
                 x           y           z       tot (Debye)
 q only:        0.638      -5.393      -0.322
   full:        0.623      -4.537      -0.150      11.645

           -------------------------------------------------
          | TOTAL ENERGY              -51.430466353727 Eh   |
          | GRADIENT NORM               0.000670796315 Eh/α |
          | HOMO-LUMO GAP               0.761765753613 eV   |
           -------------------------------------------------

 * finished run on 2023/01/24 at 14:56:03.941
