   * xtb version 6.5.1 (fef0646) compiled by 'conda@b96dff2e9fd6' on 2023-01-04
          program call               : xtb init.xyz --opt -c 0 -u 0 -P 16 --alpb water

   ID    Z sym.   atoms
    1    7 N      1
    2    6 C      2-11
    3   16 S      12, 13
    4   17 Cl     14
    5    1 H      15-26

      * Solvation model:               ALPB
        Solvent                        water
        Solvent mass                       1.8000E+01 g/mol
          :  Hamiltonian                  GFN2-xTB          :
 * total energy  :   -41.5005622 Eh     change       -0.4136496E-09 Eh
 * total energy  :   -41.5062582 Eh     change       -0.5696073E-02 Eh
 * total energy  :   -41.5078520 Eh     change       -0.1593744E-02 Eh
 * total energy  :   -41.5082701 Eh     change       -0.4181395E-03 Eh
 * total energy  :   -41.5085494 Eh     change       -0.2792893E-03 Eh
 * total energy  :   -41.5087630 Eh     change       -0.2135562E-03 Eh
 * total energy  :   -41.5090488 Eh     change       -0.2858780E-03 Eh
 * total energy  :   -41.5093532 Eh     change       -0.3043767E-03 Eh
 * total energy  :   -41.5096062 Eh     change       -0.2530223E-03 Eh
 * total energy  :   -41.5097924 Eh     change       -0.1861427E-03 Eh
 * total energy  :   -41.5107102 Eh     change       -0.3170519E-04 Eh
 * total energy  :   -41.5107435 Eh     change       -0.3326018E-04 Eh
 * total energy  :   -41.5107995 Eh     change       -0.5600894E-04 Eh
 * total energy  :   -41.5108233 Eh     change       -0.2379437E-04 Eh
 * total energy  :   -41.5108491 Eh     change       -0.2582874E-04 Eh
 * total energy  :   -41.5108657 Eh     change       -0.1662091E-04 Eh
 * total energy  :   -41.5108770 Eh     change       -0.1129789E-04 Eh
 * total energy  :   -41.5108839 Eh     change       -0.6855718E-05 Eh
 * total energy  :   -41.5108883 Eh     change       -0.4392508E-05 Eh
   *** GEOMETRY OPTIMIZATION CONVERGED AFTER 37 ITERATIONS ***

 final structure:
================
26
 xtb: 6.5.1 (fef0646)
N            1.01384290809491        0.29406235370098       -0.35300147078700
C            2.48242684483199        0.29656240441407       -0.23150426073162
C            3.03108386339834        1.72746229054081       -0.23403493165954
C            4.52041648964252        1.71111933824308       -0.18029793605461
C            5.34004831006031        1.98431771843184        0.87197441470314
C            6.70632537450081        1.82924936842844        0.57147047033519
C            6.93421128012192        1.42988991701934       -0.71864303910029
C            8.18092256588298        1.17623057341777       -1.36635941387022
C            8.40758254776332        0.78815070686973       -2.66054998938303
C            9.77511671208890        0.62946822397649       -2.95843399910049
C           10.57949835797297        0.89593091444108       -1.89751340475105
S            9.68401764943080        1.35001685048487       -0.50043758144001
S            5.43697302603684        1.24151675025409       -1.58072851427493
Cl           0.00982347481044       -2.55544181305272       -0.01474205547257
H            0.64786835576324       -0.69020939848567       -0.26932543598450
H            0.71841283565246        0.66276861552378       -1.26014319218937
H            0.58236479664174        0.84200220630914        0.39569042539057
H            2.90618174010692       -0.26546103517835       -1.06360420711022
H            2.75807823883541       -0.21203350154430        0.69172923943158
H            2.66053565578796        2.27542787109196        0.63209220513280
H            2.71455787266762        2.23808166483268       -1.14450897587227
H            4.98277995999097        2.29391822338577        1.83711016436635
H            7.50556910465120        2.00207102196603        1.27051841816488
H            7.61443578123667        0.62339163916302       -3.36831644217997
H           10.14348885214745        0.32903342767875       -3.92248030065281
H           11.64830740184753        0.85604366809413       -1.83863018688413

          :  Hamiltonian                  GFN2-xTB          :
         :: total energy             -41.510888252870 Eh    ::
         :: gradient norm              0.000458892074 Eh/a0 ::
         :: HOMO-LUMO gap              2.604406727496 eV    ::
         :: SCC energy               -42.056501454754 Eh    ::
         :: -> dispersion             -0.025826084816 Eh    ::
         :: -> Gsolv                  -0.073728051435 Eh    ::
         :: repulsion energy           0.545795057558 Eh    ::

    * Orbital Energies and Occupations

         #    Occupation            Energy/Eh            Energy/eV
      -------------------------------------------------------------
         1        2.0000           -1.0061223             -27.3780
       ...           ...                  ...                  ...
        26        2.0000           -0.4626249             -12.5887
        27        2.0000           -0.4608360             -12.5400
        28        2.0000           -0.4542392             -12.3605
        29        2.0000           -0.4496158             -12.2347
        30        2.0000           -0.4430156             -12.0551
        31        2.0000           -0.4372675             -11.8987
        32        2.0000           -0.4164784             -11.3330
        33        2.0000           -0.4032452             -10.9729
        34        2.0000           -0.3997935             -10.8789
        35        2.0000           -0.3997713             -10.8783
        36        2.0000           -0.3985567             -10.8453
        37        2.0000           -0.3938723             -10.7178
        38        2.0000           -0.3655397              -9.9468 (HOMO)
        39                         -0.2698296              -7.3424 (LUMO)
        40                         -0.2171487              -5.9089
        41                         -0.2110753              -5.7437
        42                         -0.1975971              -5.3769
        43                         -0.1738676              -4.7312
        44                         -0.1461000              -3.9756
        45                         -0.1340825              -3.6486
        46                         -0.1020920              -2.7781
        47                         -0.0252620              -0.6874
        48                         -0.0086547              -0.2355
        49                          0.0062003               0.1687
       ...                                ...                  ...
        83                          0.7046156              19.1736
      -------------------------------------------------------------
                  HL-Gap            0.0957102 Eh            2.6044 eV

     #   Z          covCN         q      C6AA      α(0)
     1   7 N        3.483    -0.166    24.587     7.365
     2   6 C        3.735    -0.022    21.055     6.549
     3   6 C        3.827    -0.089    22.177     6.701
     4   6 C        2.989     0.028    27.364     8.581
     5   6 C        3.107    -0.062    29.384     8.881
     6   6 C        3.108    -0.057    29.255     8.862
     7   6 C        3.021     0.011    27.743     8.640
     8   6 C        3.025     0.018    27.587     8.615
     9   6 C        3.109    -0.058    29.287     8.866
    10   6 C        3.108    -0.049    29.061     8.832
    11   6 C        2.940    -0.026    28.643     8.778
    12  16 S        2.327    -0.057   143.403    20.155
    13  16 S        2.356    -0.053   143.241    20.144
    14  17 Cl       0.061    -0.945   124.790    17.001
    15   1 H        0.917     0.297     0.717     1.324
    16   1 H        0.859     0.302     0.708     1.318
    17   1 H        0.859     0.300     0.713     1.322
    18   1 H        0.925     0.102     1.765     2.077
    19   1 H        0.925     0.099     1.791     2.093
    20   1 H        0.925     0.089     1.890     2.150
    21   1 H        0.924     0.094     1.837     2.120
    22   1 H        0.926     0.057     2.238     2.340
    23   1 H        0.926     0.040     2.448     2.447
    24   1 H        0.926     0.047     2.356     2.401
    25   1 H        0.926     0.045     2.382     2.414
    26   1 H        0.926     0.053     2.289     2.366

Wiberg/Mayer (AO) data.
largest (>0.10) Wiberg bond orders for each atom

     #   Z sym  total        # sym  WBO       # sym  WBO       # sym  WBO
 ---------------------------------------------------------------------------
     1   7 N    3.645 --     2 C    0.974    16 H    0.894    17 H    0.894
                            15 H    0.827
     2   6 C    3.930 --     3 C    0.989     1 N    0.974    19 H    0.968
                            18 H    0.966
     3   6 C    3.986 --     4 C    1.025     2 C    0.989    20 H    0.963
                            21 H    0.958
     4   6 C    3.932 --     5 C    1.581    13 S    1.152     3 C    1.025
     5   6 C    3.984 --     4 C    1.581     6 C    1.294    22 H    0.962
     6   6 C    3.986 --     7 C    1.518     5 C    1.294    23 H    0.961
     7   6 C    3.952 --     6 C    1.518     8 C    1.152    13 S    1.120
     8   6 C    3.950 --     9 C    1.519     7 C    1.152    12 S    1.122
                            11 C    0.101
     9   6 C    3.983 --     8 C    1.519    10 C    1.292    24 H    0.961
    10   6 C    3.987 --    11 C    1.613     9 C    1.292    25 H    0.964
    11   6 C    3.931 --    10 C    1.613    12 S    1.185    26 H    0.969
                             8 C    0.101
    12  16 S    2.593 --    11 C    1.185     8 C    1.122
    13  16 S    2.575 --     4 C    1.152     7 C    1.120
    14  17 Cl   0.107
    15   1 H    0.911 --     1 N    0.827
    16   1 H    0.909 --     1 N    0.894
    17   1 H    0.910 --     1 N    0.894
    18   1 H    0.990 --     2 C    0.966
    19   1 H    0.990 --     2 C    0.968
    20   1 H    0.992 --     3 C    0.963
    21   1 H    0.990 --     3 C    0.958
    22   1 H    0.996 --     5 C    0.962
    23   1 H    0.998 --     6 C    0.961
    24   1 H    0.998 --     9 C    0.961
    25   1 H    0.998 --    10 C    0.964
    26   1 H    0.997 --    11 C    0.969
 ---------------------------------------------------------------------------

molecular dipole:
                 x           y           z       tot (Debye)
 q only:        1.370       5.168      -0.522
   full:        1.382       4.451      -0.485      11.910

           -------------------------------------------------
          | TOTAL ENERGY              -41.510888252870 Eh   |
          | GRADIENT NORM               0.000458892074 Eh/α |
          | HOMO-LUMO GAP               2.604406727496 eV   |
           -------------------------------------------------

 * finished run on 2023/01/24 at 14:57:37.782
