   * xtb version 6.5.1 (fef0646) compiled by 'conda@b96dff2e9fd6' on 2023-01-04
          program call               : xtb init.xyz --opt -c 1 -u 0 -P 16

   ID    Z sym.   atoms
    1    7 N      1
    2    6 C      2-6
    3   16 S      7
    4    1 H      8-15

          :  Hamiltonian                  GFN2-xTB          :
 * total energy  :   -20.4876827 Eh     change       -0.1048726E-09 Eh
 * total energy  :   -20.4896490 Eh     change       -0.1966320E-02 Eh
 * total energy  :   -20.4898964 Eh     change       -0.2473805E-03 Eh
 * total energy  :   -20.4899491 Eh     change       -0.5269662E-04 Eh
 * total energy  :   -20.4899687 Eh     change       -0.1967545E-04 Eh
 * total energy  :   -20.4899782 Eh     change       -0.9492282E-05 Eh
 * total energy  :   -20.4899896 Eh     change       -0.1133217E-04 Eh
 * total energy  :   -20.4899998 Eh     change       -0.1020618E-04 Eh
 * total energy  :   -20.4900035 Eh     change       -0.3696114E-05 Eh
   *** GEOMETRY OPTIMIZATION CONVERGED AFTER 9 ITERATIONS ***

 final structure:
================
15
 xtb: 6.5.1 (fef0646)
N            1.60349670759269       -0.74402424194331        0.92761014640600
C            2.45247847935226        0.12451348748935        0.03027841853739
C            2.82185032202368        1.37136220739758        0.74745026482099
C            2.48756880699430        2.66117201271488        0.45822004744789
C            3.02372168852107        3.57939366274422        1.38616929711300
C            3.74355506836115        2.97948839615291        2.36774881173875
S            3.80926456881614        1.27937466563048        2.18339995023091
H            1.38378040807059       -1.64671299198889        0.48862380040158
H            0.72718102844311       -0.25877722347081        1.16085487816565
H            2.12086587397955       -0.90614222393029        1.80396308333455
H            1.88885026931390        0.35669225558683       -0.87458274983584
H            3.33876708210034       -0.45501543475698       -0.23836330500453
H            1.89458512953386        2.95271571989381       -0.38946891028593
H            2.87796756065492        4.64164910222252        1.32545724989749
H            4.24862700624245        3.43164060625769        3.19785901703210

          :  Hamiltonian                  GFN2-xTB          :
         :: total energy             -20.490003474939 Eh    ::
         :: gradient norm              0.000420177142 Eh/a0 ::
         :: HOMO-LUMO gap              3.833601795042 eV    ::
         :: SCC energy               -20.792461115161 Eh    ::
         :: -> dispersion             -0.010423016334 Eh    ::
         :: repulsion energy           0.302438143311 Eh    ::

    * Orbital Energies and Occupations

         #    Occupation            Energy/Eh            Energy/eV
      -------------------------------------------------------------
         1        2.0000           -0.8937441             -24.3200
       ...           ...                  ...                  ...
         7        2.0000           -0.7649999             -20.8167
         8        2.0000           -0.7359827             -20.0271
         9        2.0000           -0.7083140             -19.2742
        10        2.0000           -0.6998967             -19.0452
        11        2.0000           -0.6768565             -18.4182
        12        2.0000           -0.6669455             -18.1485
        13        2.0000           -0.6246352             -16.9972
        14        2.0000           -0.6212230             -16.9043
        15        2.0000           -0.6022140             -16.3871
        16        2.0000           -0.5984610             -16.2850
        17        2.0000           -0.5843819             -15.9018
        18        2.0000           -0.5386455             -14.6573
        19        2.0000           -0.5332604             -14.5108 (HOMO)
        20                         -0.3923781             -10.6772 (LUMO)
        21                         -0.3453371              -9.3971
        22                         -0.3117091              -8.4820
        23                         -0.2628503              -7.1525
        24                         -0.2487028              -6.7675
        25                         -0.1692980              -4.6068
        26                         -0.1455401              -3.9603
        27                         -0.1112063              -3.0261
        28                         -0.1083893              -2.9494
        29                         -0.0866152              -2.3569
        30                         -0.0718554              -1.9553
       ...                                ...                  ...
        41                          0.5574973              15.1703
      -------------------------------------------------------------
                  HL-Gap            0.1408823 Eh            3.8336 eV

     #   Z          covCN         q      C6AA      α(0)
     1   7 N        3.482    -0.136    23.938     7.267
     2   6 C        3.755    -0.032    21.208     6.567
     3   6 C        2.992    -0.019    28.479     8.754
     4   6 C        3.101    -0.041    28.874     8.806
     5   6 C        3.120    -0.036    28.715     8.776
     6   6 C        2.939    -0.008    28.222     8.713
     7  16 S        2.318     0.003   140.945    19.981
     8   1 H        0.859     0.272     0.805     1.405
     9   1 H        0.859     0.273     0.799     1.400
    10   1 H        0.859     0.280     0.775     1.379
    11   1 H        0.924     0.114     1.659     2.014
    12   1 H        0.924     0.115     1.654     2.011
    13   1 H        0.926     0.066     2.129     2.282
    14   1 H        0.926     0.075     2.036     2.231
    15   1 H        0.926     0.074     2.039     2.233

Wiberg/Mayer (AO) data.
largest (>0.10) Wiberg bond orders for each atom

     #   Z sym  total        # sym  WBO       # sym  WBO       # sym  WBO
 ---------------------------------------------------------------------------
     1   7 N    3.671 --     8 H    0.911     9 H    0.911     2 C    0.906
                            10 H    0.903
     2   6 C    3.895 --     3 C    1.032    11 H    0.962    12 H    0.958
                             1 N    0.906
     3   6 C    3.928 --     4 C    1.576     7 S    1.151     2 C    1.032
                             6 C    0.115
     4   6 C    3.987 --     3 C    1.576     5 C    1.281    13 H    0.960
                             7 S    0.112
     5   6 C    3.987 --     6 C    1.631     4 C    1.281    14 H    0.959
     6   6 C    3.951 --     5 C    1.631     7 S    1.204    15 H    0.967
                             3 C    0.115
     7  16 S    2.633 --     6 C    1.204     3 C    1.151     4 C    0.112
     8   1 H    0.925 --     1 N    0.911
     9   1 H    0.925 --     1 N    0.911
    10   1 H    0.921 --     1 N    0.903
    11   1 H    0.987 --     2 C    0.962
    12   1 H    0.987 --     2 C    0.958
    13   1 H    0.996 --     4 C    0.960
    14   1 H    0.994 --     5 C    0.959
    15   1 H    0.994 --     6 C    0.967
 ---------------------------------------------------------------------------

molecular dipole:
                 x           y           z       tot (Debye)
 q only:        3.483      -0.329       1.730
   full:        3.433      -0.132       1.784       9.840

           -------------------------------------------------
          | TOTAL ENERGY              -20.490003474939 Eh   |
          | GRADIENT NORM               0.000420177142 Eh/α |
          | HOMO-LUMO GAP               3.833601795042 eV   |
           -------------------------------------------------

 * finished run on 2023/01/23 at 13:46:07.857
