   * xtb version 6.5.1 (fef0646) compiled by 'conda@b96dff2e9fd6' on 2023-01-04
          program call               : xtb init.xyz --opt -c 1 -u 0 -P 16 --input xtb.inp

   ID    Z sym.   atoms
    1    7 N      1
    2    6 C      2-12
    3    1 H      13-24

          :  Hamiltonian                  GFN2-xTB          :
 * total energy  :   -32.1477810 Eh     change       -0.2266844E-09 Eh
 * total energy  :   -32.1514805 Eh     change       -0.3699563E-02 Eh
 * total energy  :   -32.1521326 Eh     change       -0.6520392E-03 Eh
 * total energy  :   -32.1521986 Eh     change       -0.6599436E-04 Eh
 * total energy  :   -32.1522236 Eh     change       -0.2505286E-04 Eh
 * total energy  :   -32.1522290 Eh     change       -0.5412702E-05 Eh
 * total energy  :   -32.1522360 Eh     change       -0.6948888E-05 Eh
 * total energy  :   -32.1522432 Eh     change       -0.7217464E-05 Eh
 * total energy  :   -32.1522518 Eh     change       -0.8594929E-05 Eh
 * total energy  :   -32.1522618 Eh     change       -0.9964560E-05 Eh
 * total energy  :   -32.1522710 Eh     change       -0.9191520E-05 Eh
 * total energy  :   -32.1522780 Eh     change       -0.7009631E-05 Eh
 * total energy  :   -32.1522830 Eh     change       -0.5044384E-05 Eh
 * total energy  :   -32.1522870 Eh     change       -0.4029329E-05 Eh
   *** GEOMETRY OPTIMIZATION CONVERGED AFTER 14 ITERATIONS ***

 final structure:
================
24
 xtb: 6.5.1 (fef0646)
N            0.99227815768554        0.08223082967941        0.11181980268261
C            2.50412343346933        0.06560651744494        0.08676687515103
C            2.96881369942251       -0.02157380925207       -1.33717983107563
C            3.08105337913779       -1.28600908435197       -1.95172010926880
C            3.48328647106294       -1.38556455474922       -3.25304250944275
C            3.24879266883493        1.11645350499167       -2.05263766817988
C            3.66362382040708        1.04414685063970       -3.39631911777819
C            3.78516647835296       -0.23348126179478       -4.00940220192719
C            4.21129216161231       -0.30851453358067       -5.35102452960926
C            4.49993748258205        0.82939208085786       -6.05265732002885
C            4.37504986420113        2.09111166353655       -5.44808593642708
C            3.96591361555377        2.19886725094686       -4.14828038287801
H            0.62442994311501        0.12837846608386        1.07013448637024
H            0.64030559624213       -0.76831263862798       -0.34735101875283
H            0.65475582760588        0.89434583689748       -0.42125436787746
H            2.83907606019344       -0.79696129967928        0.66376576798872
H            2.85967404245113        0.97912964702532        0.56372275328116
H            2.86988659030909       -2.17688672895394       -1.37782521643120
H            3.58189689087039       -2.35355708155062       -3.71989792469022
H            3.17498715756758        2.08996215264406       -1.58754014685013
H            4.30783226247631       -1.27989748483927       -5.81210728364494
H            4.82801728091989        0.76634626216469       -7.07864205729015
H            4.60752390717719        2.97645110949229       -6.01939935713343
H            3.87247320874961        3.16682630497530       -3.67838270618791

          :  Hamiltonian                  GFN2-xTB          :
         :: total energy             -32.152287036960 Eh    ::
         :: gradient norm              0.000206085400 Eh/a0 ::
         :: HOMO-LUMO gap              3.076185424957 eV    ::
         :: SCC energy               -32.745445950295 Eh    ::
         :: -> dispersion             -0.020863132152 Eh    ::
         :: repulsion energy           0.593132813543 Eh    ::

    * Orbital Energies and Occupations

         #    Occupation            Energy/Eh            Energy/eV
      -------------------------------------------------------------
         1        2.0000           -0.8849630             -24.0811
       ...           ...                  ...                  ...
        18        2.0000           -0.6114458             -16.6383
        19        2.0000           -0.6101057             -16.6018
        20        2.0000           -0.6054910             -16.4762
        21        2.0000           -0.5917017             -16.1010
        22        2.0000           -0.5827525             -15.8575
        23        2.0000           -0.5788712             -15.7519
        24        2.0000           -0.5704495             -15.5227
        25        2.0000           -0.5588332             -15.2066
        26        2.0000           -0.5446166             -14.8198
        27        2.0000           -0.5293678             -14.4048
        28        2.0000           -0.5244196             -14.2702
        29        2.0000           -0.5165230             -14.0553
        30        2.0000           -0.4940960             -13.4450 (HOMO)
        31                         -0.3810483             -10.3689 (LUMO)
        32                         -0.3532376              -9.6121
        33                         -0.3048514              -8.2954
        34                         -0.2759196              -7.5082
        35                         -0.2350332              -6.3956
        36                         -0.1736886              -4.7263
        37                         -0.1454775              -3.9586
        38                         -0.0857490              -2.3333
        39                         -0.0843722              -2.2959
        40                         -0.0430200              -1.1706
        41                         -0.0147577              -0.4016
       ...                                ...                  ...
        60                          0.5846383              15.9088
      -------------------------------------------------------------
                  HL-Gap            0.1130477 Eh            3.0762 eV

     #   Z          covCN         q      C6AA      α(0)
     1   7 N        3.482    -0.131    23.821     7.249
     2   6 C        3.736    -0.033    21.254     6.579
     3   6 C        2.968    -0.021    28.529     8.761
     4   6 C        2.917    -0.049    29.220     8.864
     5   6 C        2.917    -0.027    28.677     8.781
     6   6 C        2.921    -0.044    29.099     8.846
     7   6 C        2.986     0.018    27.602     8.618
     8   6 C        2.987     0.021    27.542     8.609
     9   6 C        2.917    -0.029    28.716     8.787
    10   6 C        2.916    -0.016    28.420     8.742
    11   6 C        2.916    -0.018    28.449     8.746
    12   6 C        2.917    -0.032    28.786     8.798
    13   1 H        0.859     0.265     0.827     1.425
    14   1 H        0.859     0.271     0.808     1.408
    15   1 H        0.859     0.269     0.813     1.412
    16   1 H        0.924     0.103     1.756     2.072
    17   1 H        0.925     0.102     1.770     2.080
    18   1 H        0.926     0.036     2.500     2.473
    19   1 H        0.926     0.059     2.216     2.328
    20   1 H        0.925     0.041     2.436     2.441
    21   1 H        0.926     0.054     2.275     2.358
    22   1 H        0.926     0.058     2.218     2.329
    23   1 H        0.926     0.057     2.234     2.338
    24   1 H        0.926     0.047     2.361     2.403

Wiberg/Mayer (AO) data.
largest (>0.10) Wiberg bond orders for each atom

     #   Z sym  total        # sym  WBO       # sym  WBO       # sym  WBO
 ---------------------------------------------------------------------------
     1   7 N    3.670 --    13 H    0.915    15 H    0.912    14 H    0.911
                             2 C    0.899
     2   6 C    3.881 --     3 C    1.007    17 H    0.967    16 H    0.966
                             1 N    0.899
     3   6 C    3.968 --     6 C    1.508     4 C    1.290     2 C    1.007
     4   6 C    3.990 --     5 C    1.559     3 C    1.290    18 H    0.968
     5   6 C    3.990 --     4 C    1.559     8 C    1.281    19 H    0.966
                             6 C    0.110
     6   6 C    3.991 --     3 C    1.508     7 C    1.292    20 H    0.965
                             5 C    0.110
     7   6 C    3.990 --     6 C    1.292    12 C    1.277     8 C    1.240
     8   6 C    3.990 --     9 C    1.284     5 C    1.281     7 C    1.240
     9   6 C    3.990 --    10 C    1.554     8 C    1.284    21 H    0.967
                            12 C    0.116
    10   6 C    3.986 --     9 C    1.554    11 C    1.319    22 H    0.969
    11   6 C    3.990 --    12 C    1.558    10 C    1.319    23 H    0.969
    12   6 C    3.989 --    11 C    1.558     7 C    1.277    24 H    0.967
                             9 C    0.116
    13   1 H    0.929 --     1 N    0.915
    14   1 H    0.927 --     1 N    0.911
    15   1 H    0.927 --     1 N    0.912
    16   1 H    0.989 --     2 C    0.966
    17   1 H    0.989 --     2 C    0.967
    18   1 H    0.998 --     4 C    0.968
    19   1 H    0.996 --     5 C    0.966
    20   1 H    0.998 --     6 C    0.965
    21   1 H    0.997 --     9 C    0.967
    22   1 H    0.996 --    10 C    0.969
    23   1 H    0.996 --    11 C    0.969
    24   1 H    0.997 --    12 C    0.967
 ---------------------------------------------------------------------------

molecular dipole:
                 x           y           z       tot (Debye)
 q only:        2.987       0.357      -1.415
   full:        2.765       0.359      -1.269       7.787

           -------------------------------------------------
          | TOTAL ENERGY              -32.152287036960 Eh   |
          | GRADIENT NORM               0.000206085400 Eh/α |
          | HOMO-LUMO GAP               3.076185424957 eV   |
           -------------------------------------------------

 * finished run on 2023/01/23 at 18:48:16.496
