   * xtb version 6.5.1 (fef0646) compiled by 'conda@b96dff2e9fd6' on 2023-01-04
          program call               : xtb init.xyz --opt -c 1 -u 0 -P 16 --alpb water

   ID    Z sym.   atoms
    1    7 N      1
    2    6 C      2-12
    3    1 H      13-24

      * Solvation model:               ALPB
        Solvent                        water
        Solvent mass                       1.8000E+01 g/mol
          :  Hamiltonian                  GFN2-xTB          :
 * total energy  :   -32.2545715 Eh     change       -0.2853255E-09 Eh
 * total energy  :   -32.2580832 Eh     change       -0.3511760E-02 Eh
 * total energy  :   -32.2586367 Eh     change       -0.5534934E-03 Eh
 * total energy  :   -32.2586872 Eh     change       -0.5049168E-04 Eh
 * total energy  :   -32.2587075 Eh     change       -0.2027349E-04 Eh
 * total energy  :   -32.2587137 Eh     change       -0.6278290E-05 Eh
 * total energy  :   -32.2587212 Eh     change       -0.7454515E-05 Eh
 * total energy  :   -32.2587283 Eh     change       -0.7069082E-05 Eh
 * total energy  :   -32.2587327 Eh     change       -0.4420171E-05 Eh
   *** GEOMETRY OPTIMIZATION CONVERGED AFTER 9 ITERATIONS ***

 final structure:
================
24
 xtb: 6.5.1 (fef0646)
N            0.93314362013085       -0.24043047569572        0.01979680907241
C            2.41244936717246       -0.06624036764765       -0.01321030682940
C            2.94757954493853        0.10072113139655        1.38447240182814
C            3.30370302942428       -1.03824024062656        2.13400132811595
C            3.76685463562011       -0.91237170773578        3.41266410463000
C            3.06271673829214        1.34620304534784        1.94600083211179
C            3.53381081547722        1.50931237244205        3.26426095438591
C            3.89236571860329        0.35806717449701        4.01396383504159
C            4.36624756382250        0.52161063739154        5.33204774096138
C            4.47659121621250        1.76805720056281        5.88251120490015
C            4.11936630757878        2.90663794314592        5.14158579872116
C            3.65870400749166        2.78152606813850        3.86104033213287
H            0.56167051612951       -0.36068054790685       -0.92976058890401
H            0.49196407271004        0.58202130443369        0.44790883331323
H            0.68623818631416       -1.06467239580880        0.58043681652434
H            2.65118660978889        0.81390513687562       -0.60962840419313
H            2.86145906986090       -0.94312604586706       -0.47929252824612
H            3.22709471157513       -2.01789403127737        1.68774968930304
H            4.04810781104023       -1.78364361379737        3.98551541794392
H            2.80821739359223        2.23358078102818        1.38570184627948
H            4.64174100853657       -0.35492707218104        5.90088272635984
H            4.84060909923094        1.88779853264874        6.89246540764323
H            4.21431311342273        3.88182532592270        5.59600218202247
H            3.38625584303429        3.65783984471294        3.29136356688185

          :  Hamiltonian                  GFN2-xTB          :
         :: total energy             -32.258732693078 Eh    ::
         :: gradient norm              0.000244819547 Eh/a0 ::
         :: HOMO-LUMO gap              3.217716847910 eV    ::
         :: SCC energy               -32.854130968940 Eh    ::
         :: -> dispersion             -0.020902774379 Eh    ::
         :: -> Gsolv                  -0.118494390463 Eh    ::
         :: repulsion energy           0.595372826510 Eh    ::

    * Orbital Energies and Occupations

         #    Occupation            Energy/Eh            Energy/eV
      -------------------------------------------------------------
         1        2.0000           -0.6943569             -18.8944
       ...           ...                  ...                  ...
        18        2.0000           -0.4946224             -13.4594
        19        2.0000           -0.4939668             -13.4415
        20        2.0000           -0.4827552             -13.1364
        21        2.0000           -0.4758629             -12.9489
        22        2.0000           -0.4677615             -12.7284
        23        2.0000           -0.4660029             -12.6806
        24        2.0000           -0.4556450             -12.3987
        25        2.0000           -0.4434928             -12.0681
        26        2.0000           -0.4297380             -11.6938
        27        2.0000           -0.4221811             -11.4881
        28        2.0000           -0.4167181             -11.3395
        29        2.0000           -0.4042997             -11.0016
        30        2.0000           -0.3829910             -10.4217 (HOMO)
        31                         -0.2647421              -7.2040 (LUMO)
        32                         -0.2353012              -6.4029
        33                         -0.1933314              -5.2608
        34                         -0.1545636              -4.2059
        35                         -0.0659265              -1.7940
        36                         -0.0310854              -0.8459
        37                          0.0586712               1.5965
        38                          0.0772128               2.1011
        39                          0.1063879               2.8950
        40                          0.1157220               3.1490
        41                          0.1310035               3.5648
       ...                                ...                  ...
        60                          0.6924668              18.8430
      -------------------------------------------------------------
                  HL-Gap            0.1182489 Eh            3.2177 eV

     #   Z          covCN         q      C6AA      α(0)
     1   7 N        3.485    -0.159    24.429     7.341
     2   6 C        3.737    -0.046    21.489     6.615
     3   6 C        2.966     0.005    27.914     8.666
     4   6 C        2.919    -0.048    29.199     8.861
     5   6 C        2.917    -0.038    28.934     8.821
     6   6 C        2.922    -0.050    29.249     8.869
     7   6 C        2.986     0.012    27.743     8.640
     8   6 C        2.987     0.011    27.766     8.644
     9   6 C        2.918    -0.039    28.982     8.828
    10   6 C        2.916    -0.033    28.817     8.803
    11   6 C        2.916    -0.034    28.835     8.806
    12   6 C        2.918    -0.042    29.034     8.836
    13   1 H        0.859     0.321     0.655     1.268
    14   1 H        0.859     0.307     0.692     1.304
    15   1 H        0.859     0.307     0.693     1.304
    16   1 H        0.925     0.118     1.630     1.996
    17   1 H        0.925     0.119     1.623     1.992
    18   1 H        0.926     0.062     2.176     2.307
    19   1 H        0.926     0.036     2.506     2.476
    20   1 H        0.926     0.063     2.165     2.301
    21   1 H        0.926     0.031     2.566     2.505
    22   1 H        0.926     0.025     2.657     2.549
    23   1 H        0.926     0.028     2.609     2.526
    24   1 H        0.926     0.045     2.388     2.416

Wiberg/Mayer (AO) data.
largest (>0.10) Wiberg bond orders for each atom

     #   Z sym  total        # sym  WBO       # sym  WBO       # sym  WBO
 ---------------------------------------------------------------------------
     1   7 N    3.652 --     2 C    0.957    15 H    0.892    14 H    0.891
                            13 H    0.884
     2   6 C    3.926 --     3 C    1.009    16 H    0.962    17 H    0.962
                             1 N    0.957
     3   6 C    3.987 --     6 C    1.527     4 C    1.297     2 C    1.009
     4   6 C    3.988 --     5 C    1.561     3 C    1.297    18 H    0.966
     5   6 C    3.991 --     4 C    1.561     8 C    1.278    19 H    0.968
                             6 C    0.116
     6   6 C    3.989 --     3 C    1.527     7 C    1.283    20 H    0.963
                             5 C    0.116
     7   6 C    3.990 --     6 C    1.283    12 C    1.278     8 C    1.251
     8   6 C    3.990 --     9 C    1.280     5 C    1.278     7 C    1.251
     9   6 C    3.991 --    10 C    1.557     8 C    1.280    21 H    0.969
                            12 C    0.119
    10   6 C    3.990 --     9 C    1.557    11 C    1.320    22 H    0.971
    11   6 C    3.992 --    12 C    1.558    10 C    1.320    23 H    0.971
    12   6 C    3.989 --    11 C    1.558     7 C    1.278    24 H    0.967
                             9 C    0.119
    13   1 H    0.896 --     1 N    0.884
    14   1 H    0.906 --     1 N    0.891
    15   1 H    0.906 --     1 N    0.892
    16   1 H    0.986 --     2 C    0.962
    17   1 H    0.985 --     2 C    0.962
    18   1 H    0.996 --     4 C    0.966
    19   1 H    0.998 --     5 C    0.968
    20   1 H    0.996 --     6 C    0.963
    21   1 H    0.999 --     9 C    0.969
    22   1 H    0.999 --    10 C    0.971
    23   1 H    0.999 --    11 C    0.971
    24   1 H    0.998 --    12 C    0.967
 ---------------------------------------------------------------------------

molecular dipole:
                 x           y           z       tot (Debye)
 q only:        1.941      -0.434      -0.174
   full:        1.974      -0.379       0.124       5.119

           -------------------------------------------------
          | TOTAL ENERGY              -32.258732693078 Eh   |
          | GRADIENT NORM               0.000244819547 Eh/α |
          | HOMO-LUMO GAP               3.217716847910 eV   |
           -------------------------------------------------

 * finished run on 2023/01/24 at 15:14:23.020
