   * xtb version 6.5.1 (fef0646) compiled by 'conda@b96dff2e9fd6' on 2023-01-04
          program call               : xtb init.xyz --opt -c 1 -u 0 -P 16

   ID    Z sym.   atoms
    1    7 N      1
    2    6 C      2-9
    3    1 H      10-21

          :  Hamiltonian                  GFN2-xTB          :
 * total energy  :   -25.7249902 Eh     change       -0.3436398E-09 Eh
 * total energy  :   -25.7271794 Eh     change       -0.2189183E-02 Eh
 * total energy  :   -25.7275162 Eh     change       -0.3367754E-03 Eh
 * total energy  :   -25.7275807 Eh     change       -0.6447678E-04 Eh
 * total energy  :   -25.7276108 Eh     change       -0.3011835E-04 Eh
 * total energy  :   -25.7276244 Eh     change       -0.1358807E-04 Eh
 * total energy  :   -25.7276234 Eh     change        0.9306937E-06 Eh
 * total energy  :   -25.7276336 Eh     change       -0.1014578E-04 Eh
 * total energy  :   -25.7276457 Eh     change       -0.1209757E-04 Eh
 * total energy  :   -25.7276516 Eh     change       -0.5939628E-05 Eh
 * total energy  :   -25.7276570 Eh     change       -0.5350937E-05 Eh
 * total energy  :   -25.7276598 Eh     change       -0.2817313E-05 Eh
   *** GEOMETRY OPTIMIZATION CONVERGED AFTER 12 ITERATIONS ***

 final structure:
================
21
 xtb: 6.5.1 (fef0646)
N            3.45698361765060        0.06942603724283       -1.09701006975637
C            2.55318192809280        0.08037965750252        0.12411034287229
C            1.11066624314950        0.11867512915565       -0.34951376057830
C            2.87888483164898       -1.13178926502838        0.96023110459348
C            3.32126447059258       -0.97823607394331        2.26801596755249
C            3.61824578462973       -2.08956013642532        3.03850568858887
C            3.48290955963281       -3.36004183722633        2.50502323329091
C            3.04368745229623       -3.52003986898535        1.20067428323855
C            2.74188142936058       -2.41182376807614        0.43008963760426
H            3.22327544962261        0.83967733331387       -1.73572323598287
H            3.32154928346551       -0.82642478200626       -1.58602658381828
H            4.44308593816897        0.14081198441518       -0.81920833495573
H            2.78392266498985        0.99020473504670        0.68501373292688
H            0.85890372186275       -0.76156853932032       -0.93505631542678
H            0.91054427208095        1.01108900099179       -0.93830478140776
H            0.45252167475272        0.13636597131922        0.51480413300319
H            3.42349130385875        0.01110311656317        2.68844443073886
H            3.95606149876514       -1.96049851876206        4.05441879580279
H            3.71463411030704       -4.22569340132010        3.10473644936502
H            2.93146796898824       -4.50836747763739        0.78359330614180
H            2.38241679608373       -2.55946929681994       -0.57997802379335

          :  Hamiltonian                  GFN2-xTB          :
         :: total energy             -25.727659800922 Eh    ::
         :: gradient norm              0.000384818095 Eh/a0 ::
         :: HOMO-LUMO gap              4.652901630917 eV    ::
         :: SCC energy               -26.179033103000 Eh    ::
         :: -> dispersion             -0.015098829226 Eh    ::
         :: repulsion energy           0.451285319509 Eh    ::

    * Orbital Energies and Occupations

         #    Occupation            Energy/Eh            Energy/eV
      -------------------------------------------------------------
         1        2.0000           -0.8827021             -24.0195
       ...           ...                  ...                  ...
        12        2.0000           -0.6722022             -18.2916
        13        2.0000           -0.6590024             -17.9324
        14        2.0000           -0.6383169             -17.3695
        15        2.0000           -0.6273317             -17.0706
        16        2.0000           -0.6245588             -16.9951
        17        2.0000           -0.6189443             -16.8423
        18        2.0000           -0.6101984             -16.6043
        19        2.0000           -0.6095003             -16.5853
        20        2.0000           -0.6044113             -16.4469
        21        2.0000           -0.5569499             -15.1554
        22        2.0000           -0.5527580             -15.0413
        23        2.0000           -0.5393577             -14.6767
        24        2.0000           -0.5387177             -14.6593 (HOMO)
        25                         -0.3677267             -10.0064 (LUMO)
        26                         -0.3565806              -9.7031
        27                         -0.2570433              -6.9945
        28                         -0.2229327              -6.0663
        29                         -0.1562570              -4.2520
        30                         -0.0975113              -2.6534
        31                         -0.0866962              -2.3591
        32                         -0.0659843              -1.7955
        33                         -0.0250182              -0.6808
        34                         -0.0085074              -0.2315
        35                          0.0107476               0.2925
       ...                                ...                  ...
        48                          0.5300290              14.4228
      -------------------------------------------------------------
                  HL-Gap            0.1709910 Eh            4.6529 eV

     #   Z          covCN         q      C6AA      α(0)
     1   7 N        3.484    -0.143    24.079     7.288
     2   6 C        3.784     0.023    20.197     6.401
     3   6 C        3.755    -0.138    23.217     6.871
     4   6 C        2.973    -0.016    28.410     8.743
     5   6 C        2.923    -0.034    28.853     8.809
     6   6 C        2.919    -0.018    28.452     8.747
     7   6 C        2.920    -0.016    28.408     8.740
     8   6 C        2.919    -0.021    28.519     8.757
     9   6 C        2.922    -0.042    29.036     8.837
    10   1 H        0.859     0.266     0.826     1.423
    11   1 H        0.859     0.270     0.809     1.409
    12   1 H        0.859     0.263     0.833     1.430
    13   1 H        0.924     0.092     1.862     2.134
    14   1 H        0.925     0.073     2.051     2.239
    15   1 H        0.925     0.068     2.109     2.271
    16   1 H        0.925     0.097     1.808     2.103
    17   1 H        0.926     0.049     2.337     2.391
    18   1 H        0.926     0.066     2.133     2.284
    19   1 H        0.926     0.067     2.119     2.276
    20   1 H        0.926     0.061     2.184     2.311
    21   1 H        0.925     0.031     2.567     2.505

Wiberg/Mayer (AO) data.
largest (>0.10) Wiberg bond orders for each atom

     #   Z sym  total        # sym  WBO       # sym  WBO       # sym  WBO
 ---------------------------------------------------------------------------
     1   7 N    3.666 --    12 H    0.916    10 H    0.912    11 H    0.903
                             2 C    0.881
     2   6 C    3.890 --     3 C    1.010     4 C    0.992    13 H    0.959
                             1 N    0.881
     3   6 C    3.979 --     2 C    1.010    15 H    0.979    14 H    0.978
                            16 H    0.970
     4   6 C    3.975 --     5 C    1.414     9 C    1.403     2 C    0.992
                             7 C    0.108
     5   6 C    3.991 --     6 C    1.440     4 C    1.414    17 H    0.967
                             8 C    0.108
     6   6 C    3.989 --     7 C    1.442     5 C    1.440    18 H    0.968
                             9 C    0.111
     7   6 C    3.987 --     6 C    1.442     8 C    1.433    19 H    0.968
                             4 C    0.108
     8   6 C    3.990 --     9 C    1.449     7 C    1.433    20 H    0.968
                             5 C    0.108
     9   6 C    3.992 --     8 C    1.449     4 C    1.403    21 H    0.962
                             6 C    0.111
    10   1 H    0.929 --     1 N    0.912
    11   1 H    0.927 --     1 N    0.903
    12   1 H    0.931 --     1 N    0.916
    13   1 H    0.991 --     2 C    0.959
    14   1 H    0.995 --     3 C    0.978
    15   1 H    0.995 --     3 C    0.979
    16   1 H    0.991 --     3 C    0.970
    17   1 H    0.998 --     5 C    0.967
    18   1 H    0.995 --     6 C    0.968
    19   1 H    0.995 --     7 C    0.968
    20   1 H    0.996 --     8 C    0.968
    21   1 H    0.999 --     9 C    0.962
 ---------------------------------------------------------------------------

molecular dipole:
                 x           y           z       tot (Debye)
 q only:        6.113      -0.612      -0.966
   full:        6.245      -0.537      -1.176      16.209

           -------------------------------------------------
          | TOTAL ENERGY              -25.727659800922 Eh   |
          | GRADIENT NORM               0.000384818095 Eh/α |
          | HOMO-LUMO GAP               4.652901630917 eV   |
           -------------------------------------------------

 * finished run on 2023/01/23 at 14:29:36.429
