   * xtb version 6.5.1 (fef0646) compiled by 'conda@b96dff2e9fd6' on 2023-01-04
          program call               : xtb init.xyz --opt -c 0 -u 0 -P 16

   ID    Z sym.   atoms
    1    7 N      1
    2    6 C      2-9
    3   17 Cl     10
    4    1 H      11-26

          :  Hamiltonian                  GFN2-xTB          :
 * total energy  :   -32.7229439 Eh     change       -0.3611547E-09 Eh
 * total energy  :   -32.7239822 Eh     change       -0.1038288E-02 Eh
 * total energy  :   -32.7278927 Eh     change       -0.3910511E-02 Eh
 * total energy  :   -32.7301539 Eh     change       -0.2261113E-02 Eh
 * total energy  :   -32.7338789 Eh     change       -0.3725042E-02 Eh
 * total energy  :   -32.7379661 Eh     change       -0.4087214E-02 Eh
 * total energy  :   -32.7449692 Eh     change       -0.7003126E-02 Eh
 * total energy  :   -32.7471985 Eh     change       -0.2229235E-02 Eh
 * total energy  :   -32.7485448 Eh     change       -0.1346319E-02 Eh
 * total energy  :   -32.7498691 Eh     change       -0.1324283E-02 Eh
 * total energy  :   -32.7535915 Eh     change       -0.4038788E-04 Eh
 * total energy  :   -32.7536163 Eh     change       -0.2472135E-04 Eh
 * total energy  :   -32.7536347 Eh     change       -0.1846930E-04 Eh
 * total energy  :   -32.7536500 Eh     change       -0.1522667E-04 Eh
 * total energy  :   -32.7536473 Eh     change        0.2622574E-05 Eh
 * total energy  :   -32.7536623 Eh     change       -0.1491264E-04 Eh
 * total energy  :   -32.7536652 Eh     change       -0.2903405E-05 Eh
 * total energy  :   -32.7536703 Eh     change       -0.5106652E-05 Eh
 * total energy  :   -32.7536748 Eh     change       -0.4565910E-05 Eh
   *** GEOMETRY OPTIMIZATION CONVERGED AFTER 68 ITERATIONS ***

 final structure:
================
26
 xtb: 6.5.1 (fef0646)
N            1.10949846055880       -0.10832297925240       -0.19483478371254
C            2.57112972357189       -0.09752545809396       -0.14717647596525
C            3.06982498702292        1.30591802628630        0.20843001492499
C            4.56968999616752        1.39162274826040        0.12200246653150
C            5.17300862533917        1.97359440726337       -0.90508603447173
C            6.65765607258868        2.07215378713401       -1.07192883058564
C            7.39677368038658        1.14025817721572       -0.11623005996433
C            6.78843629559676        1.25085975706912        1.27643269547598
C            5.34533333190570        0.75603416543275        1.24425535759491
Cl           0.13346484416316        1.84518322209158       -2.14974165115665
H            0.75581979835382       -1.01782914630069       -0.46961977563084
H            0.60412725237117        0.93440218028847       -1.23435233259387
H            0.71833108556748        0.13635535497730        0.70888445703134
H            2.93643820587041       -0.36742949340712       -1.14048439195923
H            2.96277499623255       -0.82756913766046        0.57459088653945
H            2.73937495216978        1.55658407758390        1.21997722744044
H            2.61567627548811        2.01282430924710       -0.48557579553640
H            4.58202689460215        2.43296941279838       -1.68591459226584
H            6.96238653358085        3.10856252824041       -0.88978325622273
H            6.92238998318776        1.84049629575196       -2.10689745871831
H            8.45818908808846        1.39384668441631       -0.09164203178905
H            7.30433196979511        0.10997222364119       -0.46661642096977
H            6.80739625951776        2.29495360148438        1.59520550197638
H            7.36700683096473        0.66665113261156        1.99481042175691
H            4.85468217723214        0.97179942749322        2.19711917432520
H            5.33857167966284       -0.33158530457489        1.11482568794900

          :  Hamiltonian                  GFN2-xTB          :
         :: total energy             -32.753674830172 Eh    ::
         :: gradient norm              0.000346544318 Eh/a0 ::
         :: HOMO-LUMO gap              5.060743990924 eV    ::
         :: SCC energy               -33.172694070380 Eh    ::
         :: -> dispersion             -0.019498212907 Eh    ::
         :: repulsion energy           0.418955736846 Eh    ::

    * Orbital Energies and Occupations

         #    Occupation            Energy/Eh            Energy/eV
      -------------------------------------------------------------
         1        2.0000           -1.0154910             -27.6329
       ...           ...                  ...                  ...
        18        2.0000           -0.4802319             -13.0678
        19        2.0000           -0.4739768             -12.8976
        20        2.0000           -0.4667546             -12.7010
        21        2.0000           -0.4642906             -12.6340
        22        2.0000           -0.4595292             -12.5044
        23        2.0000           -0.4452680             -12.1164
        24        2.0000           -0.4312846             -11.7359
        25        2.0000           -0.4208067             -11.4507
        26        2.0000           -0.4126809             -11.2296
        27        2.0000           -0.3986698             -10.8484
        28        2.0000           -0.3925707             -10.6824
        29        2.0000           -0.3925489             -10.6818
        30        2.0000           -0.3795039             -10.3268 (HOMO)
        31                         -0.1935250              -5.2661 (LUMO)
        32                         -0.0552043              -1.5022
        33                          0.0156021               0.4246
        34                          0.0682554               1.8573
        35                          0.0691257               1.8810
        36                          0.0743354               2.0228
        37                          0.0748830               2.0377
        38                          0.0788309               2.1451
        39                          0.0917692               2.4972
        40                          0.0970188               2.6400
        41                          0.1030857               2.8051
       ...                                ...                  ...
        61                          0.6457260              17.5711
      -------------------------------------------------------------
                  HL-Gap            0.1859789 Eh            5.0607 eV

     #   Z          covCN         q      C6AA      α(0)
     1   7 N        2.698    -0.305    27.841     7.837
     2   6 C        3.732     0.011    20.478     6.459
     3   6 C        3.810    -0.080    22.019     6.679
     4   6 C        2.945    -0.003    28.108     8.695
     5   6 C        2.899    -0.051    29.266     8.870
     6   6 C        3.809    -0.055    21.552     6.608
     7   6 C        3.807    -0.056    21.578     6.613
     8   6 C        3.807    -0.055    21.559     6.610
     9   6 C        3.811    -0.060    21.640     6.622
    10  17 Cl       0.837    -0.488   115.241    16.422
    11   1 H        0.860     0.165     1.302     1.787
    12   1 H        0.904     0.332     0.622     1.234
    13   1 H        0.860     0.167     1.290     1.779
    14   1 H        0.924     0.052     2.295     2.369
    15   1 H        0.923     0.024     2.667     2.554
    16   1 H        0.924     0.040     2.455     2.450
    17   1 H        0.925     0.065     2.143     2.289
    18   1 H        0.925     0.031     2.577     2.510
    19   1 H        0.924     0.040     2.453     2.449
    20   1 H        0.924     0.036     2.496     2.471
    21   1 H        0.924     0.028     2.621     2.532
    22   1 H        0.924     0.032     2.556     2.500
    23   1 H        0.924     0.035     2.517     2.481
    24   1 H        0.924     0.027     2.628     2.535
    25   1 H        0.924     0.033     2.541     2.493
    26   1 H        0.924     0.035     2.522     2.484

Wiberg/Mayer (AO) data.
largest (>0.10) Wiberg bond orders for each atom

     #   Z sym  total        # sym  WBO       # sym  WBO       # sym  WBO
 ---------------------------------------------------------------------------
     1   7 N    3.242 --     2 C    1.003    11 H    0.959    13 H    0.958
                            12 H    0.209
     2   6 C    3.972 --     1 N    1.003     3 C    0.991    14 H    0.975
                            15 H    0.972
     3   6 C    3.992 --     4 C    1.005     2 C    0.991    17 H    0.969
                            16 H    0.969
     4   6 C    3.986 --     5 C    1.888     9 C    1.009     3 C    1.005
     5   6 C    3.989 --     4 C    1.888     6 C    1.025    18 H    0.965
     6   6 C    3.998 --     5 C    1.025     7 C    1.007    20 H    0.967
                            19 H    0.959
     7   6 C    3.998 --     8 C    1.009     6 C    1.007    21 H    0.979
                            22 H    0.979
     8   6 C    3.998 --     7 C    1.009     9 C    1.006    23 H    0.978
                            24 H    0.978
     9   6 C    3.999 --     4 C    1.009     8 C    1.006    25 H    0.969
                            26 H    0.960
    10  17 Cl   0.765 --    12 H    0.676
    11   1 H    0.972 --     1 N    0.959
    12   1 H    0.890 --    10 Cl   0.676     1 N    0.209
    13   1 H    0.972 --     1 N    0.958
    14   1 H    0.997 --     2 C    0.975
    15   1 H    0.999 --     2 C    0.972
    16   1 H    0.998 --     3 C    0.969
    17   1 H    0.996 --     3 C    0.969
    18   1 H    0.999 --     5 C    0.965
    19   1 H    0.998 --     6 C    0.959
    20   1 H    0.998 --     6 C    0.967
    21   1 H    0.999 --     7 C    0.979
    22   1 H    0.999 --     7 C    0.979
    23   1 H    0.999 --     8 C    0.978
    24   1 H    0.999 --     8 C    0.978
    25   1 H    0.999 --     9 C    0.969
    26   1 H    0.999 --     9 C    0.960
 ---------------------------------------------------------------------------

molecular dipole:
                 x           y           z       tot (Debye)
 q only:        0.940      -1.183       1.321
   full:        0.748      -1.218       1.281       4.878

           -------------------------------------------------
          | TOTAL ENERGY              -32.753674830172 Eh   |
          | GRADIENT NORM               0.000346544318 Eh/α |
          | HOMO-LUMO GAP               5.060743990924 eV   |
           -------------------------------------------------

 * finished run on 2023/01/23 at 14:10:04.955
