   * xtb version 6.5.1 (fef0646) compiled by 'conda@b96dff2e9fd6' on 2023-01-04
          program call               : xtb init.xyz --opt -c 1 -u 0 -P 16 --alpb water

   ID    Z sym.   atoms
    1    7 N      1
    2    6 C      2-13
    3    1 H      14-27

      * Solvation model:               ALPB
        Solvent                        water
        Solvent mass                       1.8000E+01 g/mol
          :  Hamiltonian                  GFN2-xTB          :
 * total energy  :   -35.4221455 Eh     change       -0.2759535E-09 Eh
 * total energy  :   -35.4260971 Eh     change       -0.3951526E-02 Eh
 * total energy  :   -35.4267822 Eh     change       -0.6851650E-03 Eh
 * total energy  :   -35.4268564 Eh     change       -0.7420113E-04 Eh
 * total energy  :   -35.4268986 Eh     change       -0.4214140E-04 Eh
 * total energy  :   -35.4269172 Eh     change       -0.1858104E-04 Eh
 * total energy  :   -35.4269494 Eh     change       -0.3220680E-04 Eh
 * total energy  :   -35.4269728 Eh     change       -0.2348216E-04 Eh
 * total energy  :   -35.4269869 Eh     change       -0.1402094E-04 Eh
 * total energy  :   -35.4269981 Eh     change       -0.1121050E-04 Eh
 * total energy  :   -35.4270022 Eh     change       -0.4114278E-05 Eh
   *** GEOMETRY OPTIMIZATION CONVERGED AFTER 11 ITERATIONS ***

 final structure:
================
27
 xtb: 6.5.1 (fef0646)
N            3.30573259891994        0.67679952312038       -0.99748964400337
C            2.42527002506367       -0.06481493402643       -0.04365073513407
C            1.00332608169424        0.46970871172616       -0.16542658064482
C            2.95902463964518        0.07572957349843        1.36364438752730
C            3.29600651448570       -1.07986263232045        2.09439122206444
C            3.76912058510506       -0.98473743057422        3.37252807587899
C            3.10838203110240        1.30948491981719        1.94565218299723
C            3.59621248243123        1.44133813219619        3.26048271857867
C            3.93604443067368        0.27203628707720        3.99045915965393
C            4.42429785630198        0.40581923765390        5.30665206899490
C            4.56695266592719        1.64127653167639        5.87415566325061
C            4.22834192044179        2.79810099476171        5.15279219734537
C            3.75472765049187        2.70180773063040        3.87460955295086
H            4.26075861168327        0.30174822218686       -0.97925128525256
H            3.34303172409608        1.66964536286739       -0.73760415980675
H            2.93481294895169        0.60496247597310       -1.95239091129632
H            2.43995891815874       -1.12094358469158       -0.32296843766075
H            0.95829897347831        1.52736084458337        0.07595374781014
H            0.35471254803992       -0.05379918310571        0.53031512093298
H            0.61300226674381        0.31333383747194       -1.16686441786159
H            3.17204564232895       -2.05146974719143        1.64089329833234
H            4.02410220175263       -1.87304356055989        3.93155878496917
H            2.84230064841476        2.21826660694048        1.42665118322678
H            4.68345743628944       -0.48547537341185        5.86019867716185
H            4.94065461735215        1.73747643738923        6.88310887470624
H            4.34603605179188        3.76411440080674        5.62120880364672
H            3.49325792863440        3.59306661550460        3.32330045163185

          :  Hamiltonian                  GFN2-xTB          :
         :: total energy             -35.427002194366 Eh    ::
         :: gradient norm              0.000472070378 Eh/a0 ::
         :: HOMO-LUMO gap              3.205839443323 eV    ::
         :: SCC energy               -36.070744175729 Eh    ::
         :: -> dispersion             -0.023993371270 Eh    ::
         :: -> Gsolv                  -0.113976071970 Eh    ::
         :: repulsion energy           0.643666020343 Eh    ::

    * Orbital Energies and Occupations

         #    Occupation            Energy/Eh            Energy/eV
      -------------------------------------------------------------
         1        2.0000           -0.6967771             -18.9603
       ...           ...                  ...                  ...
        21        2.0000           -0.4843495             -13.1798
        22        2.0000           -0.4813824             -13.0991
        23        2.0000           -0.4758906             -12.9496
        24        2.0000           -0.4712757             -12.8241
        25        2.0000           -0.4644329             -12.6379
        26        2.0000           -0.4540726             -12.3559
        27        2.0000           -0.4517869             -12.2937
        28        2.0000           -0.4433476             -12.0641
        29        2.0000           -0.4297189             -11.6932
        30        2.0000           -0.4219114             -11.4808
        31        2.0000           -0.4169427             -11.3456
        32        2.0000           -0.4038098             -10.9882
        33        2.0000           -0.3827802             -10.4160 (HOMO)
        34                         -0.2649677              -7.2101 (LUMO)
        35                         -0.2344949              -6.3809
        36                         -0.1934649              -5.2644
        37                         -0.1534494              -4.1756
        38                         -0.0654185              -1.7801
        39                         -0.0420849              -1.1452
        40                          0.0477659               1.2998
        41                          0.0619038               1.6845
        42                          0.0967535               2.6328
        43                          0.1047905               2.8515
        44                          0.1108355               3.0160
       ...                                ...                  ...
        66                          0.6925321              18.8448
      -------------------------------------------------------------
                  HL-Gap            0.1178124 Eh            3.2058 eV

     #   Z          covCN         q      C6AA      α(0)
     1   7 N        3.486    -0.169    24.652     7.374
     2   6 C        3.786     0.027    20.136     6.391
     3   6 C        3.756    -0.150    23.450     6.905
     4   6 C        2.969     0.003    27.957     8.673
     5   6 C        2.919    -0.045    29.128     8.850
     6   6 C        2.917    -0.036    28.907     8.817
     7   6 C        2.922    -0.050    29.245     8.868
     8   6 C        2.986     0.012    27.740     8.640
     9   6 C        2.987     0.011    27.767     8.644
    10   6 C        2.918    -0.039    28.970     8.826
    11   6 C        2.916    -0.033    28.817     8.803
    12   6 C        2.916    -0.034    28.838     8.806
    13   6 C        2.918    -0.042    29.055     8.839
    14   1 H        0.859     0.310     0.684     1.296
    15   1 H        0.859     0.302     0.707     1.317
    16   1 H        0.859     0.316     0.668     1.280
    17   1 H        0.924     0.106     1.736     2.060
    18   1 H        0.925     0.077     2.011     2.218
    19   1 H        0.925     0.070     2.083     2.257
    20   1 H        0.925     0.079     1.986     2.204
    21   1 H        0.926     0.054     2.274     2.358
    22   1 H        0.926     0.034     2.531     2.488
    23   1 H        0.926     0.067     2.121     2.278
    24   1 H        0.926     0.030     2.590     2.517
    25   1 H        0.926     0.025     2.663     2.552
    26   1 H        0.926     0.029     2.595     2.519
    27   1 H        0.926     0.048     2.347     2.396

Wiberg/Mayer (AO) data.
largest (>0.10) Wiberg bond orders for each atom

     #   Z sym  total        # sym  WBO       # sym  WBO       # sym  WBO
 ---------------------------------------------------------------------------
     1   7 N    3.648 --     2 C    0.941    14 H    0.890    15 H    0.889
                            16 H    0.885
     2   6 C    3.935 --     3 C    1.004     4 C    0.994    17 H    0.957
                             1 N    0.941
     3   6 C    3.979 --     2 C    1.004    18 H    0.978    20 H    0.978
                            19 H    0.978
     4   6 C    3.987 --     7 C    1.523     5 C    1.300     2 C    0.994
     5   6 C    3.989 --     6 C    1.557     4 C    1.300    21 H    0.966
     6   6 C    3.991 --     5 C    1.557     9 C    1.281    22 H    0.968
                             7 C    0.116
     7   6 C    3.989 --     4 C    1.523     8 C    1.285    23 H    0.959
                             6 C    0.116
     8   6 C    3.990 --     7 C    1.285    13 C    1.277     9 C    1.249
     9   6 C    3.990 --     6 C    1.281    10 C    1.279     8 C    1.249
    10   6 C    3.991 --    11 C    1.558     9 C    1.279    24 H    0.969
                            13 C    0.119
    11   6 C    3.990 --    10 C    1.558    12 C    1.319    25 H    0.971
    12   6 C    3.992 --    13 C    1.559    11 C    1.319    26 H    0.971
    13   6 C    3.988 --    12 C    1.559     8 C    1.277    27 H    0.967
                            10 C    0.119
    14   1 H    0.904 --     1 N    0.890
    15   1 H    0.909 --     1 N    0.889
    16   1 H    0.900 --     1 N    0.885
    17   1 H    0.989 --     2 C    0.957
    18   1 H    0.994 --     3 C    0.978
    19   1 H    0.995 --     3 C    0.978
    20   1 H    0.993 --     3 C    0.978
    21   1 H    0.997 --     5 C    0.966
    22   1 H    0.998 --     6 C    0.968
    23   1 H    0.995 --     7 C    0.959
    24   1 H    0.999 --    10 C    0.969
    25   1 H    0.999 --    11 C    0.971
    26   1 H    0.999 --    12 C    0.971
    27   1 H    0.997 --    13 C    0.967
 ---------------------------------------------------------------------------

molecular dipole:
                 x           y           z       tot (Debye)
 q only:        5.856       1.265      -1.921
   full:        6.012       1.307      -1.657      16.195

           -------------------------------------------------
          | TOTAL ENERGY              -35.427002194366 Eh   |
          | GRADIENT NORM               0.000472070378 Eh/α |
          | HOMO-LUMO GAP               3.205839443323 eV   |
           -------------------------------------------------

 * finished run on 2023/01/24 at 16:55:22.413
