   * xtb version 6.5.1 (fef0646) compiled by 'conda@b96dff2e9fd6' on 2023-01-04
          program call               : xtb init.xyz --opt -c 1 -u 0 -P 16 --input xtb.inp

   ID    Z sym.   atoms
    1    7 N      1
    2    6 C      2-13
    3    1 H      14-27

          :  Hamiltonian                  GFN2-xTB          :
 * total energy  :   -35.3196880 Eh     change       -0.2640022E-09 Eh
 * total energy  :   -35.3239642 Eh     change       -0.4276219E-02 Eh
 * total energy  :   -35.3248605 Eh     change       -0.8962691E-03 Eh
 * total energy  :   -35.3250121 Eh     change       -0.1516603E-03 Eh
 * total energy  :   -35.3251310 Eh     change       -0.1188642E-03 Eh
 * total energy  :   -35.3251724 Eh     change       -0.4143052E-04 Eh
 * total energy  :   -35.3252337 Eh     change       -0.6128058E-04 Eh
 * total energy  :   -35.3252717 Eh     change       -0.3797199E-04 Eh
 * total energy  :   -35.3252960 Eh     change       -0.2432442E-04 Eh
 * total energy  :   -35.3253121 Eh     change       -0.1610356E-04 Eh
 * total energy  :   -35.3253172 Eh     change       -0.5059878E-05 Eh
 * total energy  :   -35.3253188 Eh     change       -0.1642289E-05 Eh
 * total energy  :   -35.3253207 Eh     change       -0.1840114E-05 Eh
   *** GEOMETRY OPTIMIZATION CONVERGED AFTER 13 ITERATIONS ***

 final structure:
================
27
 xtb: 6.5.1 (fef0646)
N            3.40419078511030       -0.75500446641251        0.73173497399349
C            2.35499198083307       -0.02014640102730       -0.08746310087625
C            1.03699471894758       -0.76177825160563        0.05242444790168
C            2.84952704855140        0.06453624880471       -1.50759061910276
C            3.14407085433881       -1.11882938665522       -2.21853784540523
C            3.59377059738535       -1.05739030990187       -3.50627376856313
C            3.01636481659407        1.28225794353119       -2.11565405576727
C            3.47250977175906        1.37649474600691       -3.44529929764154
C            3.77282550639002        0.18221586793494       -4.15493936875421
C            4.23535152846144        0.27384087932976       -5.48321605222697
C            4.39193404331788        1.49438013041569       -6.08006709198864
C            4.09369735623577        2.67431711810596       -5.37918932336599
C            3.64372982552476        2.61947275792951       -4.08931482218113
H            4.28725615355549       -0.23104870319491        0.74200218406998
H            3.57251824484735       -1.66530508048470        0.28016518706417
H            3.08229751652518       -0.90894405696890        1.69506164296164
H            2.26316589467207        0.98411138941738        0.33504316836543
H            1.10321035281221       -1.77152906863487       -0.34384034085072
H            0.27276295269626       -0.23719742561194       -0.51408098848564
H            0.71339126505884       -0.80297100729851        1.09010021608763
H            2.99653544062905       -2.08622239505539       -1.75577387934075
H            3.81511098938206       -1.96398268598371       -4.04869209796479
H            2.78761214234856        2.19453482632992       -1.58318605530275
H            4.46177657054928       -0.63548081032868       -6.01940410792759
H            4.74597484304102        1.56025730942921       -7.09722195935903
H            4.22258617839313        3.62689263477710       -5.86938147293425
H            3.41168262203989        3.52386819715181       -3.54680557240543

          :  Hamiltonian                  GFN2-xTB          :
         :: total energy             -35.325320656202 Eh    ::
         :: gradient norm              0.000323811365 Eh/a0 ::
         :: HOMO-LUMO gap              3.122197828947 eV    ::
         :: SCC energy               -35.967016138853 Eh    ::
         :: -> dispersion             -0.023979851611 Eh    ::
         :: repulsion energy           0.641663085528 Eh    ::

    * Orbital Energies and Occupations

         #    Occupation            Energy/Eh            Energy/eV
      -------------------------------------------------------------
         1        2.0000           -0.8765401             -23.8519
       ...           ...                  ...                  ...
        21        2.0000           -0.6078978             -16.5417
        22        2.0000           -0.6067674             -16.5110
        23        2.0000           -0.5993397             -16.3089
        24        2.0000           -0.5890567             -16.0290
        25        2.0000           -0.5816002             -15.8261
        26        2.0000           -0.5766259             -15.6908
        27        2.0000           -0.5673372             -15.4380
        28        2.0000           -0.5574232             -15.1683
        29        2.0000           -0.5425182             -14.7627
        30        2.0000           -0.5272311             -14.3467
        31        2.0000           -0.5222887             -14.2122
        32        2.0000           -0.5139078             -13.9841
        33        2.0000           -0.4919679             -13.3871 (HOMO)
        34                         -0.3772293             -10.2649 (LUMO)
        35                         -0.3503525              -9.5336
        36                         -0.3019582              -8.2167
        37                         -0.2709285              -7.3723
        38                         -0.2369641              -6.4481
        39                         -0.1715832              -4.6690
        40                         -0.1502471              -4.0884
        41                         -0.0901678              -2.4536
        42                         -0.0809709              -2.2033
        43                         -0.0605498              -1.6476
        44                         -0.0231210              -0.6292
       ...                                ...                  ...
        66                          0.5873398              15.9823
      -------------------------------------------------------------
                  HL-Gap            0.1147387 Eh            3.1222 eV

     #   Z          covCN         q      C6AA      α(0)
     1   7 N        3.484    -0.143    24.090     7.290
     2   6 C        3.784     0.025    20.176     6.398
     3   6 C        3.755    -0.137    23.191     6.867
     4   6 C        2.969    -0.023    28.578     8.769
     5   6 C        2.917    -0.051    29.270     8.872
     6   6 C        2.917    -0.028    28.703     8.785
     7   6 C        2.922    -0.041    29.018     8.834
     8   6 C        2.986     0.019    27.581     8.615
     9   6 C        2.987     0.019    27.565     8.612
    10   6 C        2.917    -0.029    28.728     8.789
    11   6 C        2.916    -0.017    28.433     8.744
    12   6 C        2.916    -0.018    28.450     8.747
    13   6 C        2.918    -0.031    28.771     8.796
    14   1 H        0.859     0.262     0.839     1.434
    15   1 H        0.859     0.270     0.809     1.409
    16   1 H        0.859     0.263     0.834     1.431
    17   1 H        0.924     0.089     1.893     2.152
    18   1 H        0.925     0.073     2.058     2.243
    19   1 H        0.925     0.096     1.825     2.112
    20   1 H        0.925     0.065     2.137     2.286
    21   1 H        0.925     0.024     2.675     2.558
    22   1 H        0.926     0.055     2.255     2.349
    23   1 H        0.926     0.044     2.397     2.421
    24   1 H        0.926     0.052     2.293     2.368
    25   1 H        0.926     0.057     2.228     2.334
    26   1 H        0.926     0.057     2.238     2.339
    27   1 H        0.926     0.048     2.344     2.394

Wiberg/Mayer (AO) data.
largest (>0.10) Wiberg bond orders for each atom

     #   Z sym  total        # sym  WBO       # sym  WBO       # sym  WBO
 ---------------------------------------------------------------------------
     1   7 N    3.663 --    14 H    0.917    16 H    0.913    15 H    0.901
                             2 C    0.878
     2   6 C    3.888 --     3 C    1.010     4 C    0.992    17 H    0.960
                             1 N    0.878
     3   6 C    3.978 --     2 C    1.010    20 H    0.979    18 H    0.978
                            19 H    0.970
     4   6 C    3.971 --     7 C    1.517     5 C    1.288     2 C    0.992
     5   6 C    3.990 --     6 C    1.560     4 C    1.288    21 H    0.961
     6   6 C    3.990 --     5 C    1.560     9 C    1.279    22 H    0.966
                             7 C    0.109
     7   6 C    3.990 --     4 C    1.517     8 C    1.287    23 H    0.965
                             6 C    0.109
     8   6 C    3.990 --     7 C    1.287    13 C    1.279     9 C    1.243
     9   6 C    3.990 --    10 C    1.283     6 C    1.279     8 C    1.243
    10   6 C    3.990 --    11 C    1.554     9 C    1.283    24 H    0.967
                            13 C    0.117
    11   6 C    3.987 --    10 C    1.554    12 C    1.320    25 H    0.969
    12   6 C    3.990 --    13 C    1.556    11 C    1.320    26 H    0.969
    13   6 C    3.989 --    12 C    1.556     8 C    1.279    27 H    0.967
                            10 C    0.117
    14   1 H    0.931 --     1 N    0.917
    15   1 H    0.927 --     1 N    0.901
    16   1 H    0.930 --     1 N    0.913
    17   1 H    0.992 --     2 C    0.960
    18   1 H    0.995 --     3 C    0.978
    19   1 H    0.991 --     3 C    0.970
    20   1 H    0.995 --     3 C    0.979
    21   1 H    0.999 --     5 C    0.961
    22   1 H    0.996 --     6 C    0.966
    23   1 H    0.998 --     7 C    0.965
    24   1 H    0.997 --    10 C    0.967
    25   1 H    0.996 --    11 C    0.969
    26   1 H    0.996 --    12 C    0.969
    27   1 H    0.997 --    13 C    0.967
 ---------------------------------------------------------------------------

molecular dipole:
                 x           y           z       tot (Debye)
 q only:        6.237      -0.726      -0.490
   full:        6.360      -0.825      -0.271      16.316

           -------------------------------------------------
          | TOTAL ENERGY              -35.325320656202 Eh   |
          | GRADIENT NORM               0.000323811365 Eh/α |
          | HOMO-LUMO GAP               3.122197828947 eV   |
           -------------------------------------------------

 * finished run on 2023/01/23 at 21:10:49.080
