   * xtb version 6.5.1 (fef0646) compiled by 'conda@b96dff2e9fd6' on 2023-01-04
          program call               : xtb init.xyz --opt -c 1 -u 0 -P 16

   ID    Z sym.   atoms
    1    7 N      1, 6
    2    6 C      2-5, 7-18
    3    1 H      19-39

          :  Hamiltonian                  GFN2-xTB          :
 * total energy  :   -50.2124706 Eh     change       -0.3107914E-09 Eh
 * total energy  :   -50.2406615 Eh     change       -0.2819085E-01 Eh
 * total energy  :   -50.2507479 Eh     change       -0.1008640E-01 Eh
 * total energy  :   -50.2549787 Eh     change       -0.4230816E-02 Eh
 * total energy  :   -50.2571033 Eh     change       -0.2124587E-02 Eh
 * total energy  :   -50.2579112 Eh     change       -0.8079533E-03 Eh
 * total energy  :   -50.2584730 Eh     change       -0.5617991E-03 Eh
 * total energy  :   -50.2589527 Eh     change       -0.4796567E-03 Eh
 * total energy  :   -50.2595220 Eh     change       -0.5693050E-03 Eh
 * total energy  :   -50.2601281 Eh     change       -0.6060928E-03 Eh
 * total energy  :   -50.2627216 Eh     change       -0.4057461E-04 Eh
 * total energy  :   -50.2627561 Eh     change       -0.3452616E-04 Eh
 * total energy  :   -50.2627892 Eh     change       -0.3307609E-04 Eh
 * total energy  :   -50.2628241 Eh     change       -0.3494104E-04 Eh
 * total energy  :   -50.2628486 Eh     change       -0.2448314E-04 Eh
 * total energy  :   -50.2628613 Eh     change       -0.1274213E-04 Eh
 * total energy  :   -50.2628698 Eh     change       -0.8448083E-05 Eh
 * total energy  :   -50.2628751 Eh     change       -0.5306712E-05 Eh
 * total energy  :   -50.2628777 Eh     change       -0.2614542E-05 Eh
   *** GEOMETRY OPTIMIZATION CONVERGED AFTER 38 ITERATIONS ***

 final structure:
================
39
 xtb: 6.5.1 (fef0646)
N           16.32804111819154        3.51121799185397       -2.12143642320019
C           15.04008625395913        3.40804827631683       -1.36018728252571
C           14.60244317081825        1.95703373134456       -1.23013972009144
C           13.27207158621298        1.86942860347641       -0.48082153946394
C           12.77783296224783        0.41735218740667       -0.33936246382906
N           11.50824802986060        0.38813365094526        0.31727661338110
C           11.37171373205088       -0.08677762681895        1.68970206130932
C            9.78488101426101        0.00676065014113        1.91528007620650
C            9.82634845355357        1.31773013158903        2.60815222845535
C           10.38242907270932        1.30493667633882        3.86361824216089
C           11.81537479498146        1.42263047911681        3.73022016824475
C           12.23766946423448        0.71751071484466        2.65756933537849
C           10.30679862577910        0.33033543203086       -0.35842014105696
C            9.25257169235755        0.05616142840278        0.52100245217550
C            7.95880252684434       -0.03868462396276        0.06645027677716
C            7.71312857590128        0.13329358834709       -1.29193556374105
C            8.75290909045811        0.41465435372162       -2.15925925712554
C           10.06184338483081        0.52298557021473       -1.70743790651126
H           16.63434450420219        4.48825153846856       -2.21098399156941
H           16.20836260787461        3.11338751231267       -3.06264643353411
H           17.06229480501488        2.97623425839588       -1.63860296652767
H           14.28084937579440        3.98509170343545       -1.88974550561957
H           15.18679993583127        3.84930796064567       -0.37355149557283
H           15.35617728078351        1.38317779640872       -0.68698333558489
H           14.48019598916150        1.51196507328926       -2.21998044356146
H           12.50728578144332        2.43599949524070       -1.01315639002255
H           13.37268332167777        2.30019890000708        0.51625393342978
H           13.50332535557707       -0.16643129187205        0.23566229594408
H           12.69336136307242       -0.03615286377956       -1.33405220754976
H           11.70882416583937       -1.14060266926922        1.73704957941190
H            9.41014465395069       -0.80788652317138        2.53222416245253
H           10.18759459864492        2.10108716253520        1.94333590318572
H            9.99566333125216        0.68155759472940        4.65791443552237
H           12.50093257951057        1.81583092885744        4.46797703103911
H           13.30141222551533        0.57347387214799        2.50618117311150
H            7.15101266310833       -0.24504565041170        0.75157691187961
H            6.70587374814845        0.05318432523405       -1.66889164281616
H            8.54818522982210        0.55444200739609       -3.21041618749702
H           10.85668293452457        0.74660765409178       -2.40417598266263

          :  Hamiltonian                  GFN2-xTB          :
         :: total energy             -50.262877718277 Eh    ::
         :: gradient norm              0.000677933517 Eh/a0 ::
         :: HOMO-LUMO gap              1.860918869526 eV    ::
         :: SCC energy               -51.077245275411 Eh    ::
         :: -> dispersion             -0.038127016079 Eh    ::
         :: repulsion energy           0.814097206365 Eh    ::

    * Orbital Energies and Occupations

         #    Occupation            Energy/Eh            Energy/eV
      -------------------------------------------------------------
         1        2.0000           -0.9001172             -24.4934
       ...           ...                  ...                  ...
        35        2.0000           -0.5451005             -14.8329
        36        2.0000           -0.5414267             -14.7330
        37        2.0000           -0.5364418             -14.5973
        38        2.0000           -0.5292575             -14.4018
        39        2.0000           -0.5156204             -14.0307
        40        2.0000           -0.5108364             -13.9006
        41        2.0000           -0.4948661             -13.4660
        42        2.0000           -0.4887603             -13.2998
        43        2.0000           -0.4863699             -13.2348
        44        2.0000           -0.4778524             -13.0030
        45        2.0000           -0.4608007             -12.5390
        46        2.0000           -0.4189894             -11.4013
        47        2.0000           -0.4077422             -11.0952 (HOMO)
        48                         -0.3393547              -9.2343 (LUMO)
        49                         -0.2830322              -7.7017
        50                         -0.2774973              -7.5511
        51                         -0.2716689              -7.3925
        52                         -0.2686228              -7.3096
        53                         -0.1670125              -4.5446
        54                         -0.1505006              -4.0953
        55                         -0.1115700              -3.0360
        56                         -0.1061087              -2.8874
        57                         -0.0837161              -2.2780
        58                         -0.0709646              -1.9310
       ...                                ...                  ...
        93                          0.6332087              17.2305
      -------------------------------------------------------------
                  HL-Gap            0.0683875 Eh            1.8609 eV

     #   Z          covCN         q      C6AA      α(0)
     1   7 N        3.482    -0.128    23.767     7.241
     2   6 C        3.732    -0.034    21.273     6.583
     3   6 C        3.802    -0.080    22.021     6.681
     4   6 C        3.804    -0.075    21.931     6.667
     5   6 C        3.740     0.005    20.574     6.472
     6   7 N        2.768    -0.117    23.548     7.207
     7   6 C        3.882     0.041    19.841     6.333
     8   6 C        3.895    -0.008    20.662     6.462
     9   6 C        3.021    -0.038    28.913     8.820
    10   6 C        2.960    -0.064    29.579     8.921
    11   6 C        2.950    -0.019    28.477     8.753
    12   6 C        2.949    -0.054    29.349     8.885
    13   6 C        2.973     0.054    26.782     8.489
    14   6 C        3.017    -0.016    28.384     8.739
    15   6 C        2.916    -0.032    28.806     8.801
    16   6 C        2.921    -0.042    29.054     8.839
    17   6 C        2.923    -0.032    28.802     8.801
    18   6 C        2.914    -0.065    29.607     8.923
    19   1 H        0.859     0.271     0.807     1.407
    20   1 H        0.859     0.273     0.800     1.401
    21   1 H        0.859     0.272     0.802     1.403
    22   1 H        0.924     0.109     1.705     2.042
    23   1 H        0.924     0.108     1.711     2.046
    24   1 H        0.924     0.061     2.184     2.311
    25   1 H        0.924     0.062     2.177     2.307
    26   1 H        0.924     0.060     2.200     2.319
    27   1 H        0.924     0.058     2.227     2.334
    28   1 H        0.924     0.042     2.423     2.434
    29   1 H        0.924     0.046     2.372     2.408
    30   1 H        0.922     0.025     2.661     2.551
    31   1 H        0.925     0.051     2.312     2.378
    32   1 H        0.925     0.031     2.571     2.508
    33   1 H        0.925     0.046     2.374     2.409
    34   1 H        0.926     0.041     2.441     2.443
    35   1 H        0.925     0.027     2.625     2.534
    36   1 H        0.926     0.039     2.457     2.451
    37   1 H        0.926     0.038     2.477     2.461
    38   1 H        0.926     0.032     2.552     2.498
    39   1 H        0.926     0.011     2.868     2.648

Wiberg/Mayer (AO) data.
largest (>0.10) Wiberg bond orders for each atom

     #   Z sym  total        # sym  WBO       # sym  WBO       # sym  WBO
 ---------------------------------------------------------------------------
     1   7 N    3.674 --     2 C    0.919    19 H    0.912    21 H    0.910
                            20 H    0.910
     2   6 C    3.884 --     3 C    1.009    23 H    0.966    22 H    0.966
                             1 N    0.919
     3   6 C    3.980 --     2 C    1.009     4 C    0.995    24 H    0.972
                            25 H    0.972
     4   6 C    3.984 --     3 C    0.995     5 C    0.985    26 H    0.975
                            27 H    0.974
     5   6 C    3.985 --     6 N    1.017     4 C    0.985    28 H    0.969
                            29 H    0.964
     6   7 N    3.370 --    13 C    1.120     5 C    1.017     7 C    0.972
     7   6 C    3.973 --    12 C    1.018     6 N    0.972    30 H    0.948
                             8 C    0.903
     8   6 C    3.987 --     9 C    1.024    14 C    1.004    31 H    0.962
                             7 C    0.903
     9   6 C    3.959 --    10 C    1.743     8 C    1.024    32 H    0.963
                            12 C    0.123
    10   6 C    3.955 --     9 C    1.743    11 C    1.137    33 H    0.944
    11   6 C    3.982 --    12 C    1.798    10 C    1.137    34 H    0.961
    12   6 C    3.983 --    11 C    1.798     7 C    1.018    35 H    0.961
                             9 C    0.123
    13   6 C    3.968 --    18 C    1.376    14 C    1.296     6 N    1.120
    14   6 C    3.983 --    15 C    1.461    13 C    1.296     8 C    1.004
                            17 C    0.103
    15   6 C    3.990 --    14 C    1.461    16 C    1.402    36 H    0.969
    16   6 C    3.987 --    17 C    1.454    15 C    1.402    37 H    0.971
    17   6 C    3.991 --    16 C    1.454    18 C    1.423    38 H    0.971
                            14 C    0.103
    18   6 C    3.983 --    17 C    1.423    13 C    1.376    39 H    0.967
    19   1 H    0.926 --     1 N    0.912
    20   1 H    0.926 --     1 N    0.910
    21   1 H    0.926 --     1 N    0.910
    22   1 H    0.988 --     2 C    0.966
    23   1 H    0.988 --     2 C    0.966
    24   1 H    0.996 --     3 C    0.972
    25   1 H    0.996 --     3 C    0.972
    26   1 H    0.996 --     4 C    0.975
    27   1 H    0.997 --     4 C    0.974
    28   1 H    0.997 --     5 C    0.969
    29   1 H    0.997 --     5 C    0.964
    30   1 H    0.999 --     7 C    0.948
    31   1 H    0.997 --     8 C    0.962
    32   1 H    0.999 --     9 C    0.963
    33   1 H    0.998 --    10 C    0.944
    34   1 H    0.997 --    11 C    0.961
    35   1 H    0.999 --    12 C    0.961
    36   1 H    0.998 --    15 C    0.969
    37   1 H    0.998 --    16 C    0.971
    38   1 H    0.998 --    17 C    0.971
    39   1 H    1.000 --    18 C    0.967
 ---------------------------------------------------------------------------

molecular dipole:
                 x           y           z       tot (Debye)
 q only:       30.153       5.991      -3.301
   full:       30.644       5.861      -3.472      79.791

           -------------------------------------------------
          | TOTAL ENERGY              -50.262877718277 Eh   |
          | GRADIENT NORM               0.000677933517 Eh/α |
          | HOMO-LUMO GAP               1.860918869526 eV   |
           -------------------------------------------------

 * finished run on 2023/01/23 at 14:21:25.768
