   * xtb version 6.5.1 (fef0646) compiled by 'conda@b96dff2e9fd6' on 2023-01-04
          program call               : xtb init.xyz --opt -c 1 -u 0 -P 16

   ID    Z sym.   atoms
    1    7 N      1
    2    6 C      2-4
    3    1 H      5-14

          :  Hamiltonian                  GFN2-xTB          :
 * total energy  :   -14.0025660 Eh     change       -0.2148859E-10 Eh
 * total energy  :   -14.0034535 Eh     change       -0.8874857E-03 Eh
 * total energy  :   -14.0035549 Eh     change       -0.1014786E-03 Eh
 * total energy  :   -14.0035680 Eh     change       -0.1304705E-04 Eh
 * total energy  :   -14.0035691 Eh     change       -0.1158159E-05 Eh
   *** GEOMETRY OPTIMIZATION CONVERGED AFTER 5 ITERATIONS ***

 final structure:
================
14
 xtb: 6.5.1 (fef0646)
N            0.96790443319253        0.05519875750538        0.09373081096807
C            2.46587677412121        0.06002403619806        0.07576610671816
C            2.98720223650491        0.45194976109290       -1.30027141312473
C            4.51308033248858        0.45230285054631       -1.30579290878424
H            0.60305710552991       -0.20780835194475        1.01776163527595
H            0.61416230177021       -0.61164798929101       -0.60538041292692
H            0.61446470772306        0.99041109506683       -0.14925035871598
H            2.81768227310925       -0.93744549771050        0.34289573709193
H            2.81802102960406        0.76679710023147        0.82845246512164
H            2.62848690344807        1.44826815525301       -1.56474814413349
H            2.62714474330696       -0.25457641001416       -2.05024715219510
H            4.90198143189305        1.16326570868237       -0.58243535753021
H            4.87996786145692        0.73224749807460       -2.28801111589468
H            4.90061786585128       -0.53389671369050       -1.06665989187039

          :  Hamiltonian                  GFN2-xTB          :
         :: total energy             -14.003569145295 Eh    ::
         :: gradient norm              0.000289637071 Eh/a0 ::
         :: HOMO-LUMO gap              8.553098121697 eV    ::
         :: SCC energy               -14.207445395360 Eh    ::
         :: -> dispersion             -0.005008049824 Eh    ::
         :: repulsion energy           0.203872303590 Eh    ::

    * Orbital Energies and Occupations

         #    Occupation            Energy/Eh            Energy/eV
      -------------------------------------------------------------
         1        2.0000           -0.9004768             -24.5032
         2        2.0000           -0.8462449             -23.0275
         3        2.0000           -0.8107557             -22.0618
         4        2.0000           -0.8063477             -21.9418
         5        2.0000           -0.7801898             -21.2300
         6        2.0000           -0.7348670             -19.9967
         7        2.0000           -0.7175274             -19.5249
         8        2.0000           -0.6923492             -18.8398
         9        2.0000           -0.6607117             -17.9789
        10        2.0000           -0.6352634             -17.2864
        11        2.0000           -0.6180682             -16.8185
        12        2.0000           -0.5903267             -16.0636
        13        2.0000           -0.5839455             -15.8900 (HOMO)
        14                         -0.2696250              -7.3369 (LUMO)
        15                         -0.1648050              -4.4846
        16                         -0.1064942              -2.8979
        17                         -0.1063164              -2.8930
        18                         -0.0589425              -1.6039
        19                         -0.0209650              -0.5705
        20                         -0.0133570              -0.3635
        21                         -0.0005955              -0.0162
        22                          0.0292805               0.7968
        23                          0.0667740               1.8170
        24                          0.0671986               1.8286
       ...                                ...                  ...
        26                          0.1428665               3.8876
      -------------------------------------------------------------
                  HL-Gap            0.3143206 Eh            8.5531 eV

     #   Z          covCN         q      C6AA      α(0)
     1   7 N        3.482    -0.128    23.763     7.240
     2   6 C        3.732    -0.035    21.291     6.586
     3   6 C        3.800    -0.074    21.922     6.666
     4   6 C        3.754    -0.123    22.918     6.826
     5   1 H        0.859     0.271     0.807     1.407
     6   1 H        0.859     0.273     0.801     1.402
     7   1 H        0.859     0.273     0.801     1.402
     8   1 H        0.924     0.109     1.708     2.044
     9   1 H        0.924     0.109     1.708     2.044
    10   1 H        0.924     0.063     2.159     2.298
    11   1 H        0.924     0.063     2.159     2.298
    12   1 H        0.925     0.061     2.186     2.312
    13   1 H        0.925     0.078     2.003     2.213
    14   1 H        0.925     0.061     2.186     2.312

Wiberg/Mayer (AO) data.
largest (>0.10) Wiberg bond orders for each atom

     #   Z sym  total        # sym  WBO       # sym  WBO       # sym  WBO
 ---------------------------------------------------------------------------
     1   7 N    3.675 --     2 C    0.920     5 H    0.912     7 H    0.910
                             6 H    0.910
     2   6 C    3.883 --     3 C    1.007     9 H    0.966     8 H    0.966
                             1 N    0.920
     3   6 C    3.981 --     4 C    1.010     2 C    1.007    10 H    0.973
                            11 H    0.973
     4   6 C    3.983 --     3 C    1.010    14 H    0.985    12 H    0.985
                            13 H    0.981
     5   1 H    0.926 --     1 N    0.912
     6   1 H    0.926 --     1 N    0.910
     7   1 H    0.926 --     1 N    0.910
     8   1 H    0.988 --     2 C    0.966
     9   1 H    0.988 --     2 C    0.966
    10   1 H    0.996 --     3 C    0.973
    11   1 H    0.996 --     3 C    0.973
    12   1 H    0.996 --     4 C    0.985
    13   1 H    0.994 --     4 C    0.981
    14   1 H    0.996 --     4 C    0.985
 ---------------------------------------------------------------------------

molecular dipole:
                 x           y           z       tot (Debye)
 q only:        2.711       0.191      -0.128
   full:        2.406       0.170      -0.053       6.132

           -------------------------------------------------
          | TOTAL ENERGY              -14.003569145295 Eh   |
          | GRADIENT NORM               0.000289637071 Eh/α |
          | HOMO-LUMO GAP               8.553098121697 eV   |
           -------------------------------------------------

 * finished run on 2023/01/23 at 13:50:31.623
