   * xtb version 6.5.1 (fef0646) compiled by 'conda@b96dff2e9fd6' on 2023-01-04
          program call               : xtb init.xyz --opt -c 0 -u 0 -P 16 --alpb water

   ID    Z sym.   atoms
    1    7 N      1
    2    6 C      2-7
    3   17 Cl     8
    4    1 H      9-22

      * Solvation model:               ALPB
        Solvent                        water
        Solvent mass                       1.8000E+01 g/mol
          :  Hamiltonian                  GFN2-xTB          :
 * total energy  :   -27.5127608 Eh     change       -0.1990177E-08 Eh
 * total energy  :   -27.5167386 Eh     change       -0.3977750E-02 Eh
 * total energy  :   -27.5183773 Eh     change       -0.1638677E-02 Eh
 * total energy  :   -27.5192091 Eh     change       -0.8318096E-03 Eh
 * total energy  :   -27.5195501 Eh     change       -0.3410095E-03 Eh
 * total energy  :   -27.5197787 Eh     change       -0.2286007E-03 Eh
 * total energy  :   -27.5198845 Eh     change       -0.1058407E-03 Eh
 * total energy  :   -27.5199112 Eh     change       -0.2666967E-04 Eh
 * total energy  :   -27.5199217 Eh     change       -0.1049815E-04 Eh
 * total energy  :   -27.5199092 Eh     change        0.1247990E-04 Eh
 * total energy  :   -27.5199225 Eh     change       -0.1328274E-04 Eh
 * total energy  :   -27.5199250 Eh     change       -0.2522864E-05 Eh
   *** GEOMETRY OPTIMIZATION CONVERGED AFTER 12 ITERATIONS ***

 final structure:
================
22
 xtb: 6.5.1 (fef0646)
N           -1.70009004865607        0.07481361282744        0.67232601435322
C           -0.98948597884108        0.03254298518898       -0.63022907597292
C           -0.08537577742729        1.25356741238263       -0.77826449071542
C            1.11664794071111        1.19356475995352        0.16100972033603
C            1.90441854887482       -0.09130795465867       -0.07220432631233
C            1.00559341306868       -1.29659895235408        0.18320131173200
C           -0.19700198250786       -1.26597604147549       -0.75671370413377
Cl          -0.40604091099327        0.05452232659430        3.45411857647924
H           -2.25087347136499        0.93151638308678        0.76268180755393
H           -1.05531771242086        0.05929726101045        1.49818024985673
H           -2.31453458208085       -0.73523448020302        0.78130321095298
H           -1.75278355469512        0.05961951429053       -1.41445726360912
H           -0.65375167857805        2.16509340092230       -0.59193444448656
H            0.27488698029105        1.29079027380510       -1.80714151972393
H            0.79510899003052        1.22512965996837        1.20355956547652
H            1.75665399050499        2.06074925786924       -0.01030888427386
H            2.76625604817795       -0.12372759829199        0.59719786840290
H            2.27608604398506       -0.11706442395141       -1.09951954186292
H            0.68280052951258       -1.28022863329750        1.22572622574653
H            1.56578538286483       -2.22029831316570        0.02841867754256
H           -0.84386340744003       -2.12041878465521       -0.55627249651558
H            0.15858123698350       -1.35204166584667       -1.78424748082582

          :  Hamiltonian                  GFN2-xTB          :
         :: total energy             -27.519925011199 Eh    ::
         :: gradient norm              0.000385092489 Eh/a0 ::
         :: HOMO-LUMO gap             10.001859198831 eV    ::
         :: SCC energy               -27.842745633722 Eh    ::
         :: -> dispersion             -0.016260504383 Eh    ::
         :: -> Gsolv                  -0.069001369319 Eh    ::
         :: repulsion energy           0.322688219093 Eh    ::

    * Orbital Energies and Occupations

         #    Occupation            Energy/Eh            Energy/eV
      -------------------------------------------------------------
         1        2.0000           -1.0059963             -27.3746
       ...           ...                  ...                  ...
        13        2.0000           -0.4897485             -13.3267
        14        2.0000           -0.4887757             -13.3003
        15        2.0000           -0.4708454             -12.8124
        16        2.0000           -0.4635102             -12.6128
        17        2.0000           -0.4619577             -12.5705
        18        2.0000           -0.4584950             -12.4763
        19        2.0000           -0.4299530             -11.6996
        20        2.0000           -0.4167255             -11.3397
        21        2.0000           -0.4119851             -11.2107
        22        2.0000           -0.4108067             -11.1786
        23        2.0000           -0.4022488             -10.9457
        24        2.0000           -0.3998648             -10.8809
        25        2.0000           -0.3976144             -10.8196 (HOMO)
        26                         -0.0300528              -0.8178 (LUMO)
        27                          0.0701705               1.9094
        28                          0.0801244               2.1803
        29                          0.0811125               2.2072
        30                          0.0985500               2.6817
        31                          0.1095089               2.9799
        32                          0.1127739               3.0687
        33                          0.1159629               3.1555
        34                          0.1179134               3.2086
        35                          0.1197360               3.2582
        36                          0.1197550               3.2587
       ...                                ...                  ...
        51                          0.3243446               8.8259
      -------------------------------------------------------------
                  HL-Gap            0.3675616 Eh           10.0019 eV

     #   Z          covCN         q      C6AA      α(0)
     1   7 N        3.485    -0.172    24.704     7.382
     2   6 C        3.784     0.032    20.051     6.378
     3   6 C        3.807    -0.080    22.027     6.681
     4   6 C        3.805    -0.065    21.749     6.639
     5   6 C        3.806    -0.058    21.620     6.619
     6   6 C        3.806    -0.065    21.749     6.639
     7   6 C        3.807    -0.080    22.028     6.681
     8  17 Cl       0.024    -0.953   125.111    17.023
     9   1 H        0.859     0.295     0.730     1.338
    10   1 H        0.881     0.295     0.727     1.334
    11   1 H        0.859     0.295     0.730     1.338
    12   1 H        0.924     0.095     1.830     2.116
    13   1 H        0.924     0.060     2.196     2.318
    14   1 H        0.924     0.069     2.095     2.263
    15   1 H        0.924     0.047     2.363     2.404
    16   1 H        0.924     0.030     2.587     2.515
    17   1 H        0.924     0.015     2.807     2.620
    18   1 H        0.924     0.036     2.498     2.472
    19   1 H        0.924     0.047     2.363     2.404
    20   1 H        0.924     0.030     2.585     2.514
    21   1 H        0.924     0.060     2.197     2.318
    22   1 H        0.924     0.069     2.094     2.263

Wiberg/Mayer (AO) data.
largest (>0.10) Wiberg bond orders for each atom

     #   Z sym  total        # sym  WBO       # sym  WBO       # sym  WBO
 ---------------------------------------------------------------------------
     1   7 N    3.643 --     2 C    0.947     9 H    0.896    11 H    0.896
                            10 H    0.837
     2   6 C    3.936 --     7 C    0.999     3 C    0.999    12 H    0.959
                             1 N    0.947
     3   6 C    3.992 --     4 C    1.009     2 C    0.999    13 H    0.972
                            14 H    0.970
     4   6 C    3.996 --     5 C    1.009     3 C    1.009    16 H    0.977
                            15 H    0.972
     5   6 C    3.998 --     6 C    1.009     4 C    1.009    17 H    0.978
                            18 H    0.977
     6   6 C    3.996 --     5 C    1.009     7 C    1.009    20 H    0.977
                            19 H    0.972
     7   6 C    3.992 --     6 C    1.009     2 C    0.999    21 H    0.972
                            22 H    0.970
     8  17 Cl   0.092
     9   1 H    0.913 --     1 N    0.896
    10   1 H    0.913 --     1 N    0.837
    11   1 H    0.913 --     1 N    0.896
    12   1 H    0.991 --     2 C    0.959
    13   1 H    0.996 --     3 C    0.972
    14   1 H    0.995 --     3 C    0.970
    15   1 H    0.998 --     4 C    0.972
    16   1 H    0.999 --     4 C    0.977
    17   1 H    1.000 --     5 C    0.978
    18   1 H    0.999 --     5 C    0.977
    19   1 H    0.998 --     6 C    0.972
    20   1 H    0.999 --     6 C    0.977
    21   1 H    0.996 --     7 C    0.972
    22   1 H    0.995 --     7 C    0.970
 ---------------------------------------------------------------------------

molecular dipole:
                 x           y           z       tot (Debye)
 q only:       -2.210       0.028      -5.284
   full:       -2.020       0.030      -4.408      12.324

           -------------------------------------------------
          | TOTAL ENERGY              -27.519925011199 Eh   |
          | GRADIENT NORM               0.000385092489 Eh/α |
          | HOMO-LUMO GAP              10.001859198831 eV   |
           -------------------------------------------------

 * finished run on 2023/01/24 at 15:11:59.333
