   * xtb version 6.5.1 (fef0646) compiled by 'conda@b96dff2e9fd6' on 2023-01-04
          program call               : xtb init.xyz --opt -c 1 -u 0 -P 16 --alpb water

   ID    Z sym.   atoms
    1    7 N      1
    2    6 C      2, 3, 5-24
    3    8 O      4
    4    1 H      25-42

      * Solvation model:               ALPB
        Solvent                        water
        Solvent mass                       1.8000E+01 g/mol
          :  Hamiltonian                  GFN2-xTB          :
 * total energy  :   -62.9730745 Eh     change       -0.1585107E-08 Eh
 * total energy  :   -62.9799801 Eh     change       -0.6905548E-02 Eh
 * total energy  :   -62.9818550 Eh     change       -0.1874936E-02 Eh
 * total energy  :   -62.9823201 Eh     change       -0.4651201E-03 Eh
 * total energy  :   -62.9829496 Eh     change       -0.6294888E-03 Eh
 * total energy  :   -62.9834825 Eh     change       -0.5329208E-03 Eh
 * total energy  :   -62.9839412 Eh     change       -0.4586924E-03 Eh
 * total energy  :   -62.9843154 Eh     change       -0.3741964E-03 Eh
 * total energy  :   -62.9845447 Eh     change       -0.2292481E-03 Eh
 * total energy  :   -62.9846838 Eh     change       -0.1391096E-03 Eh
 * total energy  :   -62.9850697 Eh     change       -0.3524136E-04 Eh
 * total energy  :   -62.9850897 Eh     change       -0.1999326E-04 Eh
 * total energy  :   -62.9851035 Eh     change       -0.1376048E-04 Eh
 * total energy  :   -62.9851142 Eh     change       -0.1078950E-04 Eh
 * total energy  :   -62.9851237 Eh     change       -0.9424297E-05 Eh
 * total energy  :   -62.9851316 Eh     change       -0.7936539E-05 Eh
 * total energy  :   -62.9851367 Eh     change       -0.5097093E-05 Eh
 * total energy  :   -62.9851421 Eh     change       -0.5423025E-05 Eh
 * total energy  :   -62.9851466 Eh     change       -0.4437664E-05 Eh
   *** GEOMETRY OPTIMIZATION CONVERGED AFTER 23 ITERATIONS ***

 final structure:
================
42
 xtb: 6.5.1 (fef0646)
N            2.33353927532488        0.39637578108920       -0.92840495832672
C            2.88656514715299       -0.52020427431124        0.09452163468307
C            3.43542689270331        0.29695699270594        1.25848597530375
O            4.44357862378016        1.13808242638320        0.70200414942249
C            5.18201304540327        1.92588663588041        1.52672544362867
C            4.97881192531377        2.04442830858678        2.87949610651972
C            5.78732050160108        2.88985181737786        3.63700080631593
C            6.79873258672957        3.64843243613388        3.07798400134353
C            7.00517654035635        3.56619484445672        1.67375512204531
C            7.99572455905631        4.35110764548984        1.02399158206435
C            8.19665655172692        4.18262321181775       -0.33608588929949
C            7.44200059753515        3.27997275415904       -1.08156420540477
C            6.45649145750375        2.54612618924940       -0.48046552153948
C            6.21340237324430        2.67996281986382        0.89867337692227
C            7.65337252789591        4.51607053746219        3.87637446447538
C            7.57216889086045        4.56608248853733        5.25783563803366
C            8.37785042297840        5.41956570170775        6.01069790786415
C            9.27312843209894        6.24734644014146        5.39190779589463
C            9.40513564827794        6.22813167721337        3.98945511980636
C           10.32307190601711        7.07981507856728        3.34405732424248
C           10.44233690469807        7.05901524289709        1.98223119870788
C            9.67595506503391        6.17537767311866        1.22275873013148
C            8.77325511628716        5.30392458819373        1.80785802159198
C            8.60467380947883        5.34248664245121        3.21864005261215
H            2.10921842391577       -0.10526398734016       -1.79487682905134
H            3.04243552693502        1.11534705961369       -1.12558667006007
H            1.48718864416604        0.86582895631029       -0.58465462915569
H            3.70272225490284       -1.09353303199715       -0.34487469494157
H            2.11740891803531       -1.20163418922010        0.45354733593758
H            3.86152096607100       -0.36780536032698        2.01530916177268
H            2.65346507711204        0.90809068431487        1.72277818284843
H            4.20553477083389        1.49229293369952        3.38771353074174
H            5.58973958067123        2.94138401553080        4.69476410594431
H            8.95901127634983        4.74631403791644       -0.84857654753482
H            7.64285536525920        3.17081004277433       -2.13686863223778
H            5.87311014581620        1.84251378679218       -1.04920300197041
H            6.87888583767572        3.93638486246661        5.79098405694214
H            8.28293308450581        5.42450440238145        7.08641562545325
H            9.89286159800084        6.92256085449696        5.96362469684836
H           10.92286326790598        7.74877166442615        3.94385636213134
H           11.13517241392267        7.72097572493357        1.48388937705233
H            9.80803404686308        6.19441388405640        0.15330469224166

          :  Hamiltonian                  GFN2-xTB          :
         :: total energy             -62.985146559415 Eh    ::
         :: gradient norm              0.000661269621 Eh/a0 ::
         :: HOMO-LUMO gap              1.847184864411 eV    ::
         :: SCC energy               -64.092804395402 Eh    ::
         :: -> dispersion             -0.049909250354 Eh    ::
         :: -> Gsolv                  -0.127590620592 Eh    ::
         :: repulsion energy           1.107790354269 Eh    ::

    * Orbital Energies and Occupations

         #    Occupation            Energy/Eh            Energy/eV
      -------------------------------------------------------------
         1        2.0000           -0.7301083             -19.8673
       ...           ...                  ...                  ...
        46        2.0000           -0.4506140             -12.2618
        47        2.0000           -0.4456898             -12.1278
        48        2.0000           -0.4426831             -12.0460
        49        2.0000           -0.4341440             -11.8137
        50        2.0000           -0.4320140             -11.7557
        51        2.0000           -0.4257795             -11.5861
        52        2.0000           -0.4053439             -11.0300
        53        2.0000           -0.4041578             -10.9977
        54        2.0000           -0.4030685             -10.9681
        55        2.0000           -0.4011904             -10.9169
        56        2.0000           -0.3991344             -10.8610
        57        2.0000           -0.3938743             -10.7179
        58        2.0000           -0.3515509              -9.5662 (HOMO)
        59                         -0.2836681              -7.7190 (LUMO)
        60                         -0.2298446              -6.2544
        61                         -0.2251129              -6.1256
        62                         -0.2240703              -6.0973
        63                         -0.2210214              -6.0143
        64                         -0.1557438              -4.2380
        65                         -0.1540151              -4.1910
        66                         -0.1153883              -3.1399
        67                         -0.0737917              -2.0080
        68                         -0.0549306              -1.4947
        69                         -0.0217696              -0.5924
       ...                                ...                  ...
       114                          0.7387220              20.1016
      -------------------------------------------------------------
                  HL-Gap            0.0678828 Eh            1.8472 eV

     #   Z          covCN         q      C6AA      α(0)
     1   7 N        3.486    -0.154    24.322     7.325
     2   6 C        3.731    -0.045    21.476     6.615
     3   6 C        3.690     0.048    19.945     6.391
     4   8 O        1.705    -0.269    18.453     5.800
     5   6 C        2.862     0.129    25.166     8.223
     6   6 C        2.910    -0.080    29.997     8.981
     7   6 C        2.924    -0.043    29.064     8.841
     8   6 C        2.973    -0.008    28.223     8.714
     9   6 C        2.994    -0.000    28.023     8.684
    10   6 C        2.975     0.003    27.946     8.671
    11   6 C        2.923    -0.039    28.978     8.828
    12   6 C        2.913    -0.038    28.951     8.823
    13   6 C        2.921    -0.042    29.043     8.838
    14   6 C        2.986    -0.010    28.253     8.719
    15   6 C        2.974     0.003    27.955     8.673
    16   6 C        2.923    -0.045    29.105     8.847
    17   6 C        2.913    -0.037    28.921     8.818
    18   6 C        2.921    -0.044    29.085     8.844
    19   6 C        2.986     0.007    27.848     8.656
    20   6 C        2.921    -0.043    29.056     8.840
    21   6 C        2.913    -0.037    28.918     8.818
    22   6 C        2.923    -0.043    29.063     8.841
    23   6 C        2.974     0.002    27.978     8.676
    24   6 C        2.995     0.000    28.015     8.682
    25   1 H        0.859     0.323     0.648     1.261
    26   1 H        0.859     0.307     0.694     1.305
    27   1 H        0.859     0.314     0.673     1.286
    28   1 H        0.925     0.132     1.522     1.929
    29   1 H        0.925     0.131     1.527     1.933
    30   1 H        0.924     0.076     2.017     2.221
    31   1 H        0.924     0.079     1.988     2.205
    32   1 H        0.926     0.053     2.277     2.360
    33   1 H        0.926     0.036     2.498     2.471
    34   1 H        0.926     0.030     2.580     2.512
    35   1 H        0.926     0.042     2.423     2.434
    36   1 H        0.926     0.070     2.080     2.255
    37   1 H        0.926     0.037     2.486     2.466
    38   1 H        0.926     0.030     2.587     2.515
    39   1 H        0.926     0.027     2.630     2.536
    40   1 H        0.926     0.028     2.615     2.529
    41   1 H        0.926     0.030     2.591     2.517
    42   1 H        0.926     0.036     2.503     2.474

Wiberg/Mayer (AO) data.
largest (>0.10) Wiberg bond orders for each atom

     #   Z sym  total        # sym  WBO       # sym  WBO       # sym  WBO
 ---------------------------------------------------------------------------
     1   7 N    3.654 --     2 C    0.976    26 H    0.887    27 H    0.887
                            25 H    0.883
     2   6 C    3.927 --     3 C    1.008     1 N    0.976    29 H    0.961
                            28 H    0.960
     3   6 C    3.931 --     2 C    1.008    30 H    0.962    31 H    0.961
                             4 O    0.954
     4   8 O    2.221 --     5 C    1.073     3 C    0.954
     5   6 C    3.924 --     6 C    1.452    14 C    1.208     4 O    1.073
     6   6 C    3.984 --     5 C    1.452     7 C    1.363    32 H    0.964
     7   6 C    3.970 --     8 C    1.445     6 C    1.363    33 H    0.962
     8   6 C    3.988 --     7 C    1.445     9 C    1.239    15 C    1.102
     9   6 C    3.989 --    14 C    1.267    10 C    1.252     8 C    1.239
    10   6 C    3.988 --    11 C    1.442     9 C    1.252    23 C    1.098
                            13 C    0.101
    11   6 C    3.973 --    10 C    1.442    12 C    1.368    34 H    0.962
    12   6 C    3.990 --    13 C    1.516    11 C    1.368    35 H    0.970
    13   6 C    3.964 --    12 C    1.516    14 C    1.297    36 H    0.963
                            10 C    0.101
    14   6 C    3.987 --    13 C    1.297     9 C    1.267     5 C    1.208
    15   6 C    3.988 --    16 C    1.443    24 C    1.248     8 C    1.102
                            18 C    0.101
    16   6 C    3.967 --    15 C    1.443    17 C    1.361    37 H    0.962
    17   6 C    3.991 --    18 C    1.527    16 C    1.361    38 H    0.970
    18   6 C    3.963 --    17 C    1.527    19 C    1.280    39 H    0.969
                            15 C    0.101
    19   6 C    3.989 --    20 C    1.280    18 C    1.280    24 C    1.257
    20   6 C    3.964 --    21 C    1.527    19 C    1.280    40 H    0.969
                            23 C    0.101
    21   6 C    3.991 --    20 C    1.527    22 C    1.360    41 H    0.970
    22   6 C    3.969 --    23 C    1.445    21 C    1.360    42 H    0.962
    23   6 C    3.988 --    22 C    1.445    24 C    1.249    10 C    1.098
                            20 C    0.101
    24   6 C    3.988 --    19 C    1.257    23 C    1.249    15 C    1.248
    25   1 H    0.895 --     1 N    0.883
    26   1 H    0.906 --     1 N    0.887
    27   1 H    0.901 --     1 N    0.887
    28   1 H    0.983 --     2 C    0.960
    29   1 H    0.982 --     2 C    0.961
    30   1 H    0.993 --     3 C    0.962
    31   1 H    0.993 --     3 C    0.961
    32   1 H    0.996 --     6 C    0.964
    33   1 H    0.998 --     7 C    0.962
    34   1 H    0.999 --    11 C    0.962
    35   1 H    0.997 --    12 C    0.970
    36   1 H    0.994 --    13 C    0.963
    37   1 H    0.998 --    16 C    0.962
    38   1 H    0.998 --    17 C    0.970
    39   1 H    0.998 --    18 C    0.969
    40   1 H    0.998 --    20 C    0.969
    41   1 H    0.998 --    21 C    0.970
    42   1 H    0.998 --    22 C    0.962
 ---------------------------------------------------------------------------

molecular dipole:
                 x           y           z       tot (Debye)
 q only:        3.596      -0.299      -1.782
   full:        3.866       0.065      -1.501      10.542

           -------------------------------------------------
          | TOTAL ENERGY              -62.985146559415 Eh   |
          | GRADIENT NORM               0.000661269621 Eh/α |
          | HOMO-LUMO GAP               1.847184864411 eV   |
           -------------------------------------------------

 * finished run on 2023/01/24 at 16:49:57.431
