   * xtb version 6.5.1 (fef0646) compiled by 'conda@b96dff2e9fd6' on 2023-01-04
          program call               : xtb init.xyz --opt -c 1 -u 0 -P 16 --alpb water

   ID    Z sym.   atoms
    1    7 N      1
    2    6 C      2-5, 7, 9, 11, 13
    3    9 F      6, 8, 10, 12, 14
    4    1 H      15-21

      * Solvation model:               ALPB
        Solvent                        water
        Solvent mass                       1.8000E+01 g/mol
          :  Hamiltonian                  GFN2-xTB          :
 * total energy  :   -46.9283518 Eh     change       -0.7558043E-10 Eh
 * total energy  :   -46.9296698 Eh     change       -0.1317928E-02 Eh
 * total energy  :   -46.9298659 Eh     change       -0.1961818E-03 Eh
 * total energy  :   -46.9298780 Eh     change       -0.1203472E-04 Eh
 * total energy  :   -46.9298828 Eh     change       -0.4802246E-05 Eh
   *** GEOMETRY OPTIMIZATION CONVERGED AFTER 5 ITERATIONS ***

 final structure:
================
21
 xtb: 6.5.1 (fef0646)
N            0.92396506317292       -1.99117852913584       -1.85673070298135
C            2.40139248363413       -2.02754803359076       -1.88933183925506
C            2.96645191460548       -0.96021524473039       -0.94001421826668
C            4.46876520193271       -0.97060783357009       -0.95034842969171
C            5.19464024518276       -0.21119649251738       -1.86429218130002
F            4.52592638164814        0.53038228600113       -2.75693984947015
C            6.58391779098570       -0.19678193211959       -1.87621443108665
F            7.24553701535366        0.55349126680676       -2.76666086504537
C            7.28614045830728       -0.96619388152009       -0.95495624947498
F            8.62412786886945       -0.95768244143485       -0.95163197034123
C            6.58913432685183       -1.74443593075487       -0.03731032548740
F            7.25587067985027       -2.49137998500646        0.85214827837874
C            5.19960686606087       -1.73980631808544       -0.04896727368870
F            4.53695660629286       -2.49548270456703        0.83636421720172
H            0.53280445147836       -2.70088927467297       -2.48782120701935
H            0.57914980363127       -1.06863277381211       -2.15094135917103
H            0.58120931836902       -2.17666176926230       -0.90574255278912
H            2.74779695957801       -1.83529334656862       -2.90501434593955
H            2.74757954315162       -3.01389035058755       -1.57986687690200
H            2.63157581795533       -1.15265839949874        0.07921518248235
H            2.63302120308830        0.02920168862721       -1.25285300015247

          :  Hamiltonian                  GFN2-xTB          :
         :: total energy             -46.929882772322 Eh    ::
         :: gradient norm              0.000814171952 Eh/a0 ::
         :: HOMO-LUMO gap              4.300392131406 eV    ::
         :: SCC energy               -47.339355792170 Eh    ::
         :: -> dispersion             -0.016227011877 Eh    ::
         :: -> Gsolv                  -0.141693580444 Eh    ::
         :: repulsion energy           0.409446427702 Eh    ::

    * Orbital Energies and Occupations

         #    Occupation            Energy/Eh            Energy/eV
      -------------------------------------------------------------
         1        2.0000           -0.8730182             -23.7560
       ...           ...                  ...                  ...
        27        2.0000           -0.5602645             -15.2456
        28        2.0000           -0.5484521             -14.9241
        29        2.0000           -0.5475241             -14.8989
        30        2.0000           -0.5394519             -14.6792
        31        2.0000           -0.5281196             -14.3709
        32        2.0000           -0.5141962             -13.9920
        33        2.0000           -0.5131521             -13.9636
        34        2.0000           -0.5017849             -13.6543
        35        2.0000           -0.4999561             -13.6045
        36        2.0000           -0.4933803             -13.4256
        37        2.0000           -0.4645036             -12.6398
        38        2.0000           -0.4561641             -12.4129
        39        2.0000           -0.4555495             -12.3961 (HOMO)
        40                         -0.2975130              -8.0957 (LUMO)
        41                         -0.2943757              -8.0104
        42                         -0.1698860              -4.6228
        43                         -0.0635717              -1.7299
        44                         -0.0442671              -1.2046
        45                         -0.0189430              -0.5155
        46                          0.0117776               0.3205
        47                          0.0394278               1.0729
        48                          0.0581254               1.5817
        49                          0.0670991               1.8259
        50                          0.0719534               1.9580
       ...                                ...                  ...
        63                          0.5766853              15.6924
      -------------------------------------------------------------
                  HL-Gap            0.1580365 Eh            4.3004 eV

     #   Z          covCN         q      C6AA      α(0)
     1   7 N        3.485    -0.160    24.447     7.344
     2   6 C        3.732    -0.036    21.313     6.589
     3   6 C        3.807    -0.089    22.198     6.707
     4   6 C        2.965     0.001    28.006     8.680
     5   6 C        2.788     0.156    24.606     8.125
     6   9 F        0.787    -0.176    10.987     3.915
     7   6 C        2.774     0.148    24.765     8.150
     8   9 F        0.787    -0.191    11.142     3.943
     9   6 C        2.779     0.150    24.726     8.144
    10   9 F        0.787    -0.192    11.156     3.945
    11   6 C        2.774     0.148    24.765     8.151
    12   9 F        0.787    -0.191    11.143     3.943
    13   6 C        2.788     0.156    24.602     8.125
    14   9 F        0.787    -0.176    10.992     3.916
    15   1 H        0.859     0.325     0.645     1.258
    16   1 H        0.859     0.317     0.664     1.276
    17   1 H        0.859     0.317     0.664     1.276
    18   1 H        0.924     0.123     1.592     1.973
    19   1 H        0.925     0.123     1.591     1.973
    20   1 H        0.925     0.123     1.590     1.972
    21   1 H        0.925     0.124     1.585     1.969

Wiberg/Mayer (AO) data.
largest (>0.10) Wiberg bond orders for each atom

     #   Z sym  total        # sym  WBO       # sym  WBO       # sym  WBO
 ---------------------------------------------------------------------------
     1   7 N    3.649 --     2 C    0.981    16 H    0.884    17 H    0.884
                            15 H    0.881
     2   6 C    3.929 --     3 C    0.984     1 N    0.981    18 H    0.964
                            19 H    0.964
     3   6 C    3.963 --     4 C    1.010     2 C    0.984    20 H    0.956
                            21 H    0.955
     4   6 C    3.970 --    13 C    1.356     5 C    1.355     3 C    1.010
     5   6 C    3.898 --     4 C    1.355     7 C    1.345     6 F    0.993
     6   9 F    1.135 --     5 C    0.993
     7   6 C    3.890 --     5 C    1.345     9 C    1.342     8 F    0.984
     8   9 F    1.124 --     7 C    0.984
     9   6 C    3.890 --    11 C    1.342     7 C    1.342    10 F    0.984
    10   9 F    1.126 --     9 C    0.984
    11   6 C    3.890 --    13 C    1.344     9 C    1.342    12 F    0.984
    12   9 F    1.124 --    11 C    0.984
    13   6 C    3.897 --     4 C    1.356    11 C    1.344    14 F    0.993
    14   9 F    1.135 --    13 C    0.993
    15   1 H    0.894 --     1 N    0.881
    16   1 H    0.899 --     1 N    0.884
    17   1 H    0.899 --     1 N    0.884
    18   1 H    0.985 --     2 C    0.964
    19   1 H    0.985 --     2 C    0.964
    20   1 H    0.984 --     3 C    0.956
    21   1 H    0.984 --     3 C    0.955
 ---------------------------------------------------------------------------

molecular dipole:
                 x           y           z       tot (Debye)
 q only:        0.035      -3.780      -3.525
   full:        0.334      -3.746      -3.494      13.048

           -------------------------------------------------
          | TOTAL ENERGY              -46.929882772322 Eh   |
          | GRADIENT NORM               0.000814171952 Eh/α |
          | HOMO-LUMO GAP               4.300392131406 eV   |
           -------------------------------------------------

 * finished run on 2023/01/24 at 14:56:06.861
