   * xtb version 6.5.1 (fef0646) compiled by 'conda@b96dff2e9fd6' on 2023-01-04
          program call               : xtb init.xyz --opt -c 0 -u 0 -P 16

   ID    Z sym.   atoms
    1    7 N      1, 6
    2    6 C      2-5, 7-18
    3   17 Cl     19
    4    1 H      20-40

          :  Hamiltonian                  GFN2-xTB          :
 * total energy  :   -54.9568757 Eh     change       -0.3584425E-08 Eh
 * total energy  :   -55.0081729 Eh     change       -0.5129717E-01 Eh
 * total energy  :   -55.0532091 Eh     change       -0.4503619E-01 Eh
 * total energy  :   -55.0750772 Eh     change       -0.2186815E-01 Eh
 * total energy  :   -55.0867479 Eh     change       -0.1167074E-01 Eh
 * total energy  :   -55.0930750 Eh     change       -0.6327043E-02 Eh
 * total energy  :   -55.0960223 Eh     change       -0.2947286E-02 Eh
 * total energy  :   -55.0978045 Eh     change       -0.1782239E-02 Eh
 * total energy  :   -55.0989105 Eh     change       -0.1105992E-02 Eh
 * total energy  :   -55.1001169 Eh     change       -0.1206390E-02 Eh
 * total energy  :   -55.2490320 Eh     change       -0.2505247E-04 Eh
 * total energy  :   -55.2490432 Eh     change       -0.1113908E-04 Eh
 * total energy  :   -55.2490668 Eh     change       -0.2364200E-04 Eh
 * total energy  :   -55.2490801 Eh     change       -0.1326859E-04 Eh
 * total energy  :   -55.2490965 Eh     change       -0.1645225E-04 Eh
 * total energy  :   -55.2491056 Eh     change       -0.9082266E-05 Eh
 * total energy  :   -55.2491169 Eh     change       -0.1130012E-04 Eh
 * total energy  :   -55.2491277 Eh     change       -0.1079485E-04 Eh
 * total energy  :   -55.2491306 Eh     change       -0.2915670E-05 Eh
   *** GEOMETRY OPTIMIZATION CONVERGED AFTER 79 ITERATIONS ***

 final structure:
================
40
 xtb: 6.5.1 (fef0646)
N           11.50341883350525       -2.18596065731032        1.42677006530535
C           12.94600129060050       -2.08981066646257        1.22836411675841
C           13.69843931138618       -1.47887497168310        2.41558722401837
C           13.70438926961873       -2.40646784305020        3.64048543480281
C           13.14444568586399       -1.73892838737720        4.90574251705375
N           11.84773145761453       -1.14624962548570        4.67988253098873
C           11.59430064385950        0.23848053807718        5.07355435248067
C           10.00417489567630        0.36195825497826        4.88492787284540
C           10.06670207931129        1.00431864668617        3.55061801749262
C           10.54952532801657        2.28951418945870        3.54054153472205
C           11.99402682892627        2.23506794186602        3.49499072343825
C           12.44193897576733        1.22603061906533        4.27272381919435
C           10.68762115529396       -1.88878109172286        4.76782174221176
C            9.56296008641005       -1.06339068232658        4.89526318952098
C            8.29526278159571       -1.59151657890465        4.95304956896076
C            8.14223724022035       -2.97253825793542        4.89830055754739
C            9.25128970369859       -3.79136634210455        4.78548479282760
C           10.53487642417892       -3.26683969436010        4.71838791692285
Cl          10.27345776211843       -3.65913947383226       -0.76964020712973
H           10.85144578293531       -2.95401085297427        0.26489008598605
H           11.08547969202387       -1.26277068032621        1.48594062143077
H           11.28058248480418       -2.68391859153271        2.28386035150247
H           13.11354511817219       -1.48529601207788        0.33446190155206
H           13.32070406557579       -3.09679884823334        1.02908656133502
H           13.21957005008733       -0.53170308159424        2.67455072188383
H           14.71932817822121       -1.25699781020411        2.10419362213107
H           14.71854061973704       -2.74270410447942        3.85992279437078
H           13.11523682855819       -3.29734397246316        3.41904845277272
H           13.83079155770011       -0.95446874709238        5.23071246751798
H           13.08854252764189       -2.48729919364398        5.70924165238004
H           11.86151163849078        0.36380621162786        6.14115687810674
H            9.55227583264764        0.99196213763440        5.65039311170532
H           10.51120124749025        0.33697403446139        2.81388653635266
H           10.08949123985285        3.07755441402956        4.12165321469074
H           12.65592457342828        2.98867586860888        3.09204394683099
H           13.50396076613608        1.14985558143755        4.47357518635076
H            7.43647666011876       -0.94366389616690        5.04548973747700
H            7.15555245125004       -3.40595257074700        4.94740479666584
H            9.12271605933817       -4.86299705512281        4.75051918650454
H           11.38295287141849       -3.93055874839478        4.64926240248911

          :  Hamiltonian                  GFN2-xTB          :
         :: total energy             -55.249130613780 Eh    ::
         :: gradient norm              0.000307318881 Eh/a0 ::
         :: HOMO-LUMO gap              1.875530921610 eV    ::
         :: SCC energy               -56.053931413726 Eh    ::
         :: -> dispersion             -0.045034511308 Eh    ::
         :: repulsion energy           0.803489513617 Eh    ::

    * Orbital Energies and Occupations

         #    Occupation            Energy/Eh            Energy/eV
      -------------------------------------------------------------
         1        2.0000           -1.0090457             -27.4575
       ...           ...                  ...                  ...
        39        2.0000           -0.4536028             -12.3432
        40        2.0000           -0.4520919             -12.3020
        41        2.0000           -0.4475093             -12.1773
        42        2.0000           -0.4365212             -11.8783
        43        2.0000           -0.4270517             -11.6207
        44        2.0000           -0.4250477             -11.5661
        45        2.0000           -0.4185297             -11.3888
        46        2.0000           -0.4024297             -10.9507
        47        2.0000           -0.3932112             -10.6998
        48        2.0000           -0.3863061             -10.5119
        49        2.0000           -0.3862786             -10.5112
        50        2.0000           -0.3576018              -9.7308
        51        2.0000           -0.3512003              -9.5566 (HOMO)
        52                         -0.2822758              -7.6811 (LUMO)
        53                         -0.2249088              -6.1201
        54                         -0.2197584              -5.9799
        55                         -0.2118418              -5.7645
        56                         -0.0923278              -2.5124
        57                         -0.0502642              -1.3678
        58                         -0.0184849              -0.5030
        59                         -0.0073340              -0.1996
        60                          0.0271715               0.7394
        61                          0.0450029               1.2246
        62                          0.0526492               1.4327
       ...                                ...                  ...
       102                          0.6892215              18.7547
      -------------------------------------------------------------
                  HL-Gap            0.0689245 Eh            1.8755 eV

     #   Z          covCN         q      C6AA      α(0)
     1   7 N        2.717    -0.305    27.835     7.836
     2   6 C        3.732     0.002    20.645     6.486
     3   6 C        3.799    -0.073    21.892     6.662
     4   6 C        3.801    -0.067    21.782     6.645
     5   6 C        3.740     0.008    20.515     6.462
     6   7 N        2.762    -0.123    23.673     7.226
     7   6 C        3.883     0.046    19.757     6.319
     8   6 C        3.894    -0.006    20.637     6.458
     9   6 C        3.014    -0.042    29.019     8.836
    10   6 C        2.959    -0.065    29.619     8.927
    11   6 C        2.949    -0.020    28.500     8.756
    12   6 C        2.947    -0.049    29.217     8.865
    13   6 C        2.978     0.056    26.735     8.481
    14   6 C        3.015    -0.021    28.506     8.758
    15   6 C        2.916    -0.035    28.866     8.810
    16   6 C        2.921    -0.044    29.097     8.846
    17   6 C        2.922    -0.032    28.809     8.802
    18   6 C        2.914    -0.066    29.642     8.928
    19  17 Cl       0.837    -0.493   115.414    16.435
    20   1 H        0.923     0.327     0.634     1.245
    21   1 H        0.860     0.167     1.288     1.778
    22   1 H        0.860     0.177     1.232     1.739
    23   1 H        0.924     0.051     2.311     2.377
    24   1 H        0.924     0.054     2.275     2.359
    25   1 H        0.924     0.049     2.335     2.390
    26   1 H        0.925     0.038     2.470     2.458
    27   1 H        0.924     0.038     2.481     2.463
    28   1 H        0.924     0.045     2.385     2.415
    29   1 H        0.924     0.038     2.480     2.463
    30   1 H        0.923     0.030     2.591     2.517
    31   1 H        0.922     0.019     2.756     2.596
    32   1 H        0.925     0.041     2.429     2.437
    33   1 H        0.925     0.025     2.657     2.549
    34   1 H        0.925     0.036     2.498     2.472
    35   1 H        0.926     0.040     2.454     2.450
    36   1 H        0.925     0.039     2.468     2.457
    37   1 H        0.926     0.031     2.575     2.510
    38   1 H        0.926     0.031     2.575     2.509
    39   1 H        0.926     0.032     2.563     2.503
    40   1 H        0.926     0.023     2.686     2.563

Wiberg/Mayer (AO) data.
largest (>0.10) Wiberg bond orders for each atom

     #   Z sym  total        # sym  WBO       # sym  WBO       # sym  WBO
 ---------------------------------------------------------------------------
     1   7 N    3.261 --     2 C    1.011    21 H    0.951    22 H    0.944
                            20 H    0.221
     2   6 C    3.975 --     1 N    1.011     3 C    1.001    23 H    0.974
                            24 H    0.972
     3   6 C    3.995 --     4 C    1.004     2 C    1.001    26 H    0.979
                            25 H    0.966
     4   6 C    3.994 --     3 C    1.004     5 C    0.996    27 H    0.979
                            28 H    0.970
     5   6 C    3.981 --     6 N    0.998     4 C    0.996    29 H    0.971
                            30 H    0.966
     6   7 N    3.364 --    13 C    1.130     5 C    0.998     7 C    0.974
     7   6 C    3.976 --    12 C    1.018     6 N    0.974    31 H    0.948
                             8 C    0.902
     8   6 C    3.989 --     9 C    1.024    14 C    1.005    32 H    0.962
                             7 C    0.902
     9   6 C    3.957 --    10 C    1.747     8 C    1.024    33 H    0.957
                            12 C    0.116
    10   6 C    3.953 --     9 C    1.747    11 C    1.127    34 H    0.946
    11   6 C    3.982 --    12 C    1.804    10 C    1.127    35 H    0.961
    12   6 C    3.984 --    11 C    1.804     7 C    1.018    36 H    0.958
                             9 C    0.116
    13   6 C    3.972 --    18 C    1.367    14 C    1.295     6 N    1.130
    14   6 C    3.983 --    15 C    1.461    13 C    1.295     8 C    1.005
                            17 C    0.102
    15   6 C    3.991 --    14 C    1.461    16 C    1.403    37 H    0.970
    16   6 C    3.988 --    17 C    1.451    15 C    1.403    38 H    0.972
    17   6 C    3.991 --    16 C    1.451    18 C    1.427    39 H    0.971
                            14 C    0.102
    18   6 C    3.984 --    17 C    1.427    13 C    1.367    40 H    0.965
    19  17 Cl   0.759 --    20 H    0.668
    20   1 H    0.893 --    19 Cl   0.668     1 N    0.221
    21   1 H    0.972 --     1 N    0.951
    22   1 H    0.969 --     1 N    0.944
    23   1 H    0.997 --     2 C    0.974
    24   1 H    0.997 --     2 C    0.972
    25   1 H    0.998 --     3 C    0.966
    26   1 H    0.998 --     3 C    0.979
    27   1 H    0.998 --     4 C    0.979
    28   1 H    0.998 --     4 C    0.970
    29   1 H    0.998 --     5 C    0.971
    30   1 H    0.999 --     5 C    0.966
    31   1 H    1.000 --     7 C    0.948
    32   1 H    0.998 --     8 C    0.962
    33   1 H    0.999 --     9 C    0.957
    34   1 H    0.998 --    10 C    0.946
    35   1 H    0.997 --    11 C    0.961
    36   1 H    0.998 --    12 C    0.958
    37   1 H    0.999 --    15 C    0.970
    38   1 H    0.999 --    16 C    0.972
    39   1 H    0.998 --    17 C    0.971
    40   1 H    0.999 --    18 C    0.965
 ---------------------------------------------------------------------------

molecular dipole:
                 x           y           z       tot (Debye)
 q only:        1.458       1.207       1.820
   full:        1.499       1.193       2.138       7.295

           -------------------------------------------------
          | TOTAL ENERGY              -55.249130613780 Eh   |
          | GRADIENT NORM               0.000307318881 Eh/α |
          | HOMO-LUMO GAP               1.875530921610 eV   |
           -------------------------------------------------

 * finished run on 2023/01/23 at 14:20:30.281
