   * xtb version 6.5.1 (fef0646) compiled by 'conda@b96dff2e9fd6' on 2023-01-04
          program call               : xtb init.xyz --opt -c 0 -u 0 -P 16

   ID    Z sym.   atoms
    1    7 N      1
    2    6 C      2-5
    3    8 O      6
    4   17 Cl     7
    5    1 H      8-19

          :  Hamiltonian                  GFN2-xTB          :
 * total energy  :   -26.1898635 Eh     change       -0.4166161E-09 Eh
 * total energy  :   -26.1971259 Eh     change       -0.7262425E-02 Eh
 * total energy  :   -26.2014295 Eh     change       -0.4303577E-02 Eh
 * total energy  :   -26.2043001 Eh     change       -0.2870593E-02 Eh
 * total energy  :   -26.2069258 Eh     change       -0.2625660E-02 Eh
 * total energy  :   -26.2086545 Eh     change       -0.1728711E-02 Eh
 * total energy  :   -26.2089279 Eh     change       -0.2734701E-03 Eh
 * total energy  :   -26.2092146 Eh     change       -0.2866748E-03 Eh
 * total energy  :   -26.2092767 Eh     change       -0.6209380E-04 Eh
 * total energy  :   -26.2093347 Eh     change       -0.5798613E-04 Eh
 * total energy  :   -26.2094251 Eh     change       -0.3724814E-04 Eh
 * total energy  :   -26.2094484 Eh     change       -0.2329933E-04 Eh
 * total energy  :   -26.2094554 Eh     change       -0.7025664E-05 Eh
 * total energy  :   -26.2094746 Eh     change       -0.1920274E-04 Eh
 * total energy  :   -26.2094876 Eh     change       -0.1300388E-04 Eh
 * total energy  :   -26.2095020 Eh     change       -0.1444375E-04 Eh
 * total energy  :   -26.2095074 Eh     change       -0.5341498E-05 Eh
 * total energy  :   -26.2095140 Eh     change       -0.6622909E-05 Eh
 * total energy  :   -26.2095166 Eh     change       -0.2589628E-05 Eh
   *** GEOMETRY OPTIMIZATION CONVERGED AFTER 20 ITERATIONS ***

 final structure:
================
19
 xtb: 6.5.1 (fef0646)
N            1.02861788404016       -0.41433491366760       -0.27608612647657
C            2.48773609130748       -0.41657516075399       -0.36506923473472
C            2.96809322029198        0.85356358661557       -1.06144134423840
C            4.48964275947704        0.95616641724813       -1.05928013481879
C            4.97002023852835        2.21811709857502       -1.77991722497557
O            6.37269403118123        2.32528670923484       -1.80776474899567
Cl           0.16353576019472        1.92752520390491        1.26684277642147
H            0.68490165697145       -1.24723309616821        0.18914941665820
H            0.61081286124993       -0.35839427657650       -1.19945000382663
H            0.56798905677453        0.83347829894339        0.54514355307892
H            2.86873750605849       -1.29809901276803       -0.90023035572455
H            2.87604117663774       -0.44501267072189        0.65568460628306
H            2.53998349783614        1.71447418077113       -0.54728647606725
H            2.60449514655240        0.86210083382516       -2.09134466001715
H            4.92680298011265        0.08379143977498       -1.55045528174458
H            4.85016980212769        0.97435765077256       -0.02685712842064
H            4.52254034408541        3.10482610490849       -1.30784961970301
H            4.66108933995298        2.19450272733531       -2.82769908531651
H            6.69929664661966        2.35892887874676       -0.90158892738150

          :  Hamiltonian                  GFN2-xTB          :
         :: total energy             -26.209516581759 Eh    ::
         :: gradient norm              0.000644658555 Eh/a0 ::
         :: HOMO-LUMO gap              9.168570401631 eV    ::
         :: SCC energy               -26.454611653615 Eh    ::
         :: -> dispersion             -0.010666180914 Eh    ::
         :: repulsion energy           0.245070917510 Eh    ::

    * Orbital Energies and Occupations

         #    Occupation            Energy/Eh            Energy/eV
      -------------------------------------------------------------
         1        2.0000           -1.0201266             -27.7591
       ...           ...                  ...                  ...
        11        2.0000           -0.5394988             -14.6805
        12        2.0000           -0.5216071             -14.1937
        13        2.0000           -0.5127753             -13.9533
        14        2.0000           -0.5042011             -13.7200
        15        2.0000           -0.4858895             -13.2217
        16        2.0000           -0.4731964             -12.8763
        17        2.0000           -0.4650112             -12.6536
        18        2.0000           -0.4548395             -12.3768
        19        2.0000           -0.4404014             -11.9839
        20        2.0000           -0.4149496             -11.2914
        21        2.0000           -0.4029544             -10.9649
        22        2.0000           -0.3973000             -10.8111
        23        2.0000           -0.3972415             -10.8095 (HOMO)
        24                         -0.0603028              -1.6409 (LUMO)
        25                          0.0026610               0.0724
        26                          0.0507370               1.3806
        27                          0.0636076               1.7308
        28                          0.0641560               1.7458
        29                          0.0696341               1.8948
        30                          0.0696644               1.8957
        31                          0.0698961               1.9020
        32                          0.0895034               2.4355
        33                          0.1056246               2.8742
        34                          0.1229737               3.3463
       ...                                ...                  ...
        45                          0.2937773               7.9941
      -------------------------------------------------------------
                  HL-Gap            0.3369388 Eh            9.1686 eV

     #   Z          covCN         q      C6AA      α(0)
     1   7 N        2.692    -0.306    27.874     7.841
     2   6 C        3.732     0.007    20.549     6.470
     3   6 C        3.804    -0.077    21.963     6.672
     4   6 C        3.801    -0.073    21.901     6.663
     5   6 C        3.675     0.078    19.495     6.327
     6   8 O        1.655    -0.439    21.623     6.277
     7  17 Cl       0.837    -0.484   115.105    16.413
     8   1 H        0.860     0.167     1.290     1.779
     9   1 H        0.860     0.168     1.285     1.776
    10   1 H        0.898     0.332     0.622     1.234
    11   1 H        0.923     0.027     2.630     2.536
    12   1 H        0.924     0.054     2.273     2.358
    13   1 H        0.924     0.064     2.147     2.291
    14   1 H        0.924     0.040     2.443     2.444
    15   1 H        0.924     0.045     2.381     2.413
    16   1 H        0.924     0.037     2.492     2.469
    17   1 H        0.923     0.022     2.696     2.568
    18   1 H        0.924     0.049     2.327     2.386
    19   1 H        0.805     0.287     0.761     1.370

Wiberg/Mayer (AO) data.
largest (>0.10) Wiberg bond orders for each atom

     #   Z sym  total        # sym  WBO       # sym  WBO       # sym  WBO
 ---------------------------------------------------------------------------
     1   7 N    3.236 --     2 C    1.006     8 H    0.959     9 H    0.958
                            10 H    0.204
     2   6 C    3.974 --     3 C    1.006     1 N    1.006    12 H    0.974
                            11 H    0.972
     3   6 C    3.993 --     4 C    1.007     2 C    1.006    14 H    0.976
                            13 H    0.972
     4   6 C    3.996 --     3 C    1.007     5 C    0.996    15 H    0.977
                            16 H    0.976
     5   6 C    3.957 --     6 O    1.002     4 C    0.996    18 H    0.973
                            17 H    0.970
     6   8 O    1.962 --     5 C    1.002    19 H    0.903
     7  17 Cl   0.769 --    10 H    0.681
     8   1 H    0.972 --     1 N    0.959
     9   1 H    0.972 --     1 N    0.958
    10   1 H    0.890 --     7 Cl   0.681     1 N    0.204
    11   1 H    0.999 --     2 C    0.972
    12   1 H    0.997 --     2 C    0.974
    13   1 H    0.996 --     3 C    0.972
    14   1 H    0.998 --     3 C    0.976
    15   1 H    0.998 --     4 C    0.977
    16   1 H    0.999 --     4 C    0.976
    17   1 H    0.999 --     5 C    0.970
    18   1 H    0.998 --     5 C    0.973
    19   1 H    0.918 --     6 O    0.903
 ---------------------------------------------------------------------------

molecular dipole:
                 x           y           z       tot (Debye)
 q only:        0.419      -1.517      -0.594
   full:        0.175      -1.510      -0.329       3.954

           -------------------------------------------------
          | TOTAL ENERGY              -26.209516581759 Eh   |
          | GRADIENT NORM               0.000644658555 Eh/α |
          | HOMO-LUMO GAP               9.168570401631 eV   |
           -------------------------------------------------

 * finished run on 2023/01/23 at 14:22:06.046
