   * xtb version 6.5.1 (fef0646) compiled by 'conda@b96dff2e9fd6' on 2023-01-04
          program call               : xtb init.xyz --opt -c 0 -u 0 -P 16 --alpb water

   ID    Z sym.   atoms
    1    8 O      1
    2    6 C      2-4
    3    7 N      5
    4   17 Cl     6
    5    1 H      7-16

      * Solvation model:               ALPB
        Solvent                        water
        Solvent mass                       1.8000E+01 g/mol
          :  Hamiltonian                  GFN2-xTB          :
 * total energy  :   -23.0838198 Eh     change       -0.3413092E-10 Eh
 * total energy  :   -23.0878799 Eh     change       -0.4060053E-02 Eh
 * total energy  :   -23.0896162 Eh     change       -0.1736319E-02 Eh
 * total energy  :   -23.0904126 Eh     change       -0.7964208E-03 Eh
 * total energy  :   -23.0914991 Eh     change       -0.1086493E-02 Eh
 * total energy  :   -23.0920339 Eh     change       -0.5347365E-03 Eh
 * total energy  :   -23.0924057 Eh     change       -0.3718403E-03 Eh
 * total energy  :   -23.0925038 Eh     change       -0.9804285E-04 Eh
 * total energy  :   -23.0925632 Eh     change       -0.5947161E-04 Eh
 * total energy  :   -23.0926302 Eh     change       -0.6692760E-04 Eh
 * total energy  :   -23.0928195 Eh     change       -0.5225933E-04 Eh
 * total energy  :   -23.0928647 Eh     change       -0.4523737E-04 Eh
 * total energy  :   -23.0928946 Eh     change       -0.2989147E-04 Eh
 * total energy  :   -23.0929219 Eh     change       -0.2731485E-04 Eh
 * total energy  :   -23.0929399 Eh     change       -0.1799974E-04 Eh
 * total energy  :   -23.0929477 Eh     change       -0.7820762E-05 Eh
 * total energy  :   -23.0929465 Eh     change        0.1215211E-05 Eh
 * total energy  :   -23.0929545 Eh     change       -0.7943784E-05 Eh
 * total energy  :   -23.0929585 Eh     change       -0.4067795E-05 Eh
   *** GEOMETRY OPTIMIZATION CONVERGED AFTER 21 ITERATIONS ***

 final structure:
================
16
 xtb: 6.5.1 (fef0646)
O            3.52689638056535       -1.25329488711605       -1.20383356228254
C            2.52361188715977       -0.72254286440298       -0.35570464790380
C            2.93877869613859       -0.91409771538202        1.10501943518105
C            4.38950610667097       -0.51949719418676        1.34944918851207
N            4.61912118563688        0.88809469702167        0.96474509444090
Cl           2.34622869313299        2.71035240762248        1.94847693824962
H            3.19730426919200       -1.30028239846716       -2.10837388967086
H            1.56566698727466       -1.22879850031251       -0.52087952472776
H            2.37336384958712        0.34611076323157       -0.56141161886736
H            2.81441475609563       -1.95954292143087        1.38282896139211
H            2.28085176031622       -0.30268198892163        1.72227295219713
H            5.04117874324877       -1.16112014270952        0.75595538798750
H            4.61347595222007       -0.64119091909109        2.40760198822194
H            4.57331474660903        0.97846203985931       -0.05268653435378
H            5.52479313202925        1.22498419056427        1.29558810922998
H            3.86730285412273        1.50418543372159        1.36244172239443

          :  Hamiltonian                  GFN2-xTB          :
         :: total energy             -23.092958521590 Eh    ::
         :: gradient norm              0.000460232923 Eh/a0 ::
         :: HOMO-LUMO gap             10.310225414587 eV    ::
         :: SCC energy               -23.300221218190 Eh    ::
         :: -> dispersion             -0.008739585367 Eh    ::
         :: -> Gsolv                  -0.076069731262 Eh    ::
         :: repulsion energy           0.207227048395 Eh    ::

    * Orbital Energies and Occupations

         #    Occupation            Energy/Eh            Energy/eV
      -------------------------------------------------------------
         1        2.0000           -1.0057861             -27.3688
       ...           ...                  ...                  ...
         8        2.0000           -0.5636285             -15.3371
         9        2.0000           -0.5555414             -15.1171
        10        2.0000           -0.5337648             -14.5245
        11        2.0000           -0.5213866             -14.1877
        12        2.0000           -0.4984793             -13.5643
        13        2.0000           -0.4785109             -13.0209
        14        2.0000           -0.4618649             -12.5680
        15        2.0000           -0.4439839             -12.0814
        16        2.0000           -0.4371683             -11.8960
        17        2.0000           -0.4058432             -11.0436
        18        2.0000           -0.4028667             -10.9626
        19        2.0000           -0.4005840             -10.9004
        20        2.0000           -0.4003740             -10.8947 (HOMO)
        21                         -0.0214802              -0.5845 (LUMO)
        22                          0.0458662               1.2481
        23                          0.0845638               2.3011
        24                          0.0929579               2.5295
        25                          0.1089020               2.9634
        26                          0.1158550               3.1526
        27                          0.1177291               3.2036
        28                          0.1187650               3.2318
        29                          0.1199912               3.2651
        30                          0.1207986               3.2871
        31                          0.1380926               3.7577
       ...                                ...                  ...
        39                          0.3024916               8.2312
      -------------------------------------------------------------
                  HL-Gap            0.3788938 Eh           10.3102 eV

     #   Z          covCN         q      C6AA      α(0)
     1   8 O        1.655    -0.505    23.010     6.475
     2   6 C        3.673     0.077    19.527     6.333
     3   6 C        3.802    -0.081    22.046     6.685
     4   6 C        3.732    -0.026    21.126     6.560
     5   7 N        3.484    -0.163    24.512     7.353
     6  17 Cl       0.037    -0.951   125.026    17.017
     7   1 H        0.805     0.355     0.576     1.193
     8   1 H        0.924     0.022     2.707     2.573
     9   1 H        0.923     0.029     2.595     2.519
    10   1 H        0.925     0.073     2.048     2.238
    11   1 H        0.925     0.060     2.194     2.316
    12   1 H        0.924     0.118     1.632     1.998
    13   1 H        0.925     0.101     1.773     2.082
    14   1 H        0.859     0.292     0.736     1.344
    15   1 H        0.860     0.305     0.699     1.310
    16   1 H        0.894     0.293     0.731     1.338

Wiberg/Mayer (AO) data.
largest (>0.10) Wiberg bond orders for each atom

     #   Z sym  total        # sym  WBO       # sym  WBO       # sym  WBO
 ---------------------------------------------------------------------------
     1   8 O    1.910 --     2 C    0.994     7 H    0.861
     2   6 C    3.957 --     3 C    1.002     1 O    0.994     8 H    0.974
                             9 H    0.969
     3   6 C    3.993 --     4 C    1.013     2 C    1.002    11 H    0.972
                            10 H    0.971
     4   6 C    3.931 --     3 C    1.013    13 H    0.969     5 N    0.968
                            12 H    0.964
     5   7 N    3.650 --     4 C    0.968    14 H    0.899    15 H    0.894
                            16 H    0.837
     6  17 Cl   0.096
     7   1 H    0.874 --     1 O    0.861
     8   1 H    1.000 --     2 C    0.974
     9   1 H    0.999 --     2 C    0.969
    10   1 H    0.995 --     3 C    0.971
    11   1 H    0.996 --     3 C    0.972
    12   1 H    0.986 --     4 C    0.964
    13   1 H    0.990 --     4 C    0.969
    14   1 H    0.914 --     5 N    0.899
    15   1 H    0.907 --     5 N    0.894
    16   1 H    0.914 --     5 N    0.837
 ---------------------------------------------------------------------------

molecular dipole:
                 x           y           z       tot (Debye)
 q only:        3.544      -3.398      -1.913
   full:        2.862      -2.781      -1.863      11.193

           -------------------------------------------------
          | TOTAL ENERGY              -23.092958521590 Eh   |
          | GRADIENT NORM               0.000460232923 Eh/α |
          | HOMO-LUMO GAP              10.310225414587 eV   |
           -------------------------------------------------

 * finished run on 2023/01/24 at 14:55:50.476
