   * xtb version 6.5.1 (fef0646) compiled by 'conda@b96dff2e9fd6' on 2023-01-04
          program call               : xtb init.xyz --opt -c 1 -u 0 -P 16 --input xtb.inp

   ID    Z sym.   atoms
    1    7 N      1
    2    6 C      2, 3
    3    9 F      4
    4    1 H      5-11

          :  Hamiltonian                  GFN2-xTB          :
 * total energy  :   -15.0502728 Eh     change       -0.5050182E-11 Eh
 * total energy  :   -15.0509030 Eh     change       -0.6302631E-03 Eh
 * total energy  :   -15.0509963 Eh     change       -0.9328587E-04 Eh
 * total energy  :   -15.0510183 Eh     change       -0.2202209E-04 Eh
 * total energy  :   -15.0510307 Eh     change       -0.1236027E-04 Eh
 * total energy  :   -15.0510374 Eh     change       -0.6660856E-05 Eh
 * total energy  :   -15.0510399 Eh     change       -0.2517606E-05 Eh
   *** GEOMETRY OPTIMIZATION CONVERGED AFTER 7 ITERATIONS ***

 final structure:
================
11
 xtb: 6.5.1 (fef0646)
N            1.07270469772633       -0.01476346515287        0.07159332002917
C            2.56335348328836       -0.03310214254451        0.00648465413549
C            3.04901487908605       -1.33350292476358        0.63969669172185
F            2.43551641712468       -1.43179546270125        1.86212569016576
H            0.68585479933854        0.89477110133250       -0.20945798992032
H            0.79807775416179       -0.21209614262774        1.04971355237670
H            0.66668847696767       -0.74992479102111       -0.52415643803582
H            2.94170305192916        0.81699333961136        0.57851273666111
H            2.90374288343806        0.04415600867320       -1.02578058366692
H            4.12926345136038       -1.32660764460652        0.80138950442033
H            2.76041010557898       -2.21872787619949        0.06435886211264

          :  Hamiltonian                  GFN2-xTB          :
         :: total energy             -15.051039882697 Eh    ::
         :: gradient norm              0.000284866167 Eh/a0 ::
         :: HOMO-LUMO gap              9.411913303196 eV    ::
         :: SCC energy               -15.195452770605 Eh    ::
         :: -> dispersion             -0.003362701604 Eh    ::
         :: repulsion energy           0.144411271683 Eh    ::

    * Orbital Energies and Occupations

         #    Occupation            Energy/Eh            Energy/eV
      -------------------------------------------------------------
         1        2.0000           -0.9859354             -26.8287
         2        2.0000           -0.9160540             -24.9271
         3        2.0000           -0.8665513             -23.5801
         4        2.0000           -0.8256444             -22.4669
         5        2.0000           -0.8159827             -22.2040
         6        2.0000           -0.8022117             -21.8293
         7        2.0000           -0.7636120             -20.7789
         8        2.0000           -0.7308859             -19.8884
         9        2.0000           -0.7172507             -19.5174
        10        2.0000           -0.7064161             -19.2226
        11        2.0000           -0.6831909             -18.5906
        12        2.0000           -0.6418811             -17.4665
        13        2.0000           -0.6290064             -17.1161 (HOMO)
        14                         -0.2831250              -7.7042 (LUMO)
        15                         -0.1766847              -4.8078
        16                         -0.1364873              -3.7140
        17                         -0.1268476              -3.4517
        18                         -0.1072801              -2.9192
        19                         -0.0828624              -2.2548
        20                         -0.0328713              -0.8945
        21                         -0.0151351              -0.4118
        22                          0.0255297               0.6947
        23                          0.0650258               1.7694
      -------------------------------------------------------------
                  HL-Gap            0.3458814 Eh            9.4119 eV

     #   Z          covCN         q      C6AA      α(0)
     1   7 N        3.484    -0.123    23.670     7.226
     2   6 C        3.731    -0.040    21.376     6.600
     3   6 C        3.609     0.082    19.717     6.413
     4   9 F        0.786    -0.237    11.620     4.027
     5   1 H        0.859     0.276     0.788     1.391
     6   1 H        0.859     0.296     0.724     1.333
     7   1 H        0.859     0.277     0.787     1.390
     8   1 H        0.924     0.131     1.525     1.931
     9   1 H        0.925     0.122     1.593     1.974
    10   1 H        0.924     0.119     1.619     1.990
    11   1 H        0.924     0.095     1.829     2.115

Wiberg/Mayer (AO) data.
largest (>0.10) Wiberg bond orders for each atom

     #   Z sym  total        # sym  WBO       # sym  WBO       # sym  WBO
 ---------------------------------------------------------------------------
     1   7 N    3.677 --     2 C    0.946     5 H    0.910     7 H    0.908
                             6 H    0.892
     2   6 C    3.903 --     3 C    1.007     9 H    0.965     8 H    0.961
                             1 N    0.946
     3   6 C    3.891 --     2 C    1.007    11 H    0.963    10 H    0.957
                             4 F    0.948
     4   9 F    1.017 --     3 C    0.948
     5   1 H    0.924 --     1 N    0.910
     6   1 H    0.912 --     1 N    0.892
     7   1 H    0.923 --     1 N    0.908
     8   1 H    0.983 --     2 C    0.961
     9   1 H    0.985 --     2 C    0.965
    10   1 H    0.986 --     3 C    0.957
    11   1 H    0.991 --     3 C    0.963
 ---------------------------------------------------------------------------

molecular dipole:
                 x           y           z       tot (Debye)
 q only:        2.923      -0.089      -0.448
   full:        2.766      -0.059      -0.563       7.176

           -------------------------------------------------
          | TOTAL ENERGY              -15.051039882697 Eh   |
          | GRADIENT NORM               0.000284866167 Eh/α |
          | HOMO-LUMO GAP               9.411913303196 eV   |
           -------------------------------------------------

 * finished run on 2023/01/23 at 20:54:34.336
