   * xtb version 6.5.1 (fef0646) compiled by 'conda@b96dff2e9fd6' on 2023-01-04
          program call               : xtb init.xyz --opt -c 1 -u 0 -P 16 --input xtb.inp

   ID    Z sym.   atoms
    1    7 N      1
    2    6 C      2-6
    3    8 O      7, 8
    4    1 H      9-20

          :  Hamiltonian                  GFN2-xTB          :
 * total energy  :   -27.4339087 Eh     change       -0.8200374E-10 Eh
 * total energy  :   -27.4369281 Eh     change       -0.3019486E-02 Eh
 * total energy  :   -27.4373954 Eh     change       -0.4672912E-03 Eh
 * total energy  :   -27.4376251 Eh     change       -0.2296212E-03 Eh
 * total energy  :   -27.4377558 Eh     change       -0.1307386E-03 Eh
 * total energy  :   -27.4378976 Eh     change       -0.1418319E-03 Eh
 * total energy  :   -27.4380467 Eh     change       -0.1490645E-03 Eh
 * total energy  :   -27.4381653 Eh     change       -0.1186146E-03 Eh
 * total energy  :   -27.4382335 Eh     change       -0.6821660E-04 Eh
 * total energy  :   -27.4382681 Eh     change       -0.3461561E-04 Eh
 * total energy  :   -27.4496091 Eh     change       -0.5860504E-04 Eh
 * total energy  :   -27.4496341 Eh     change       -0.2499693E-04 Eh
 * total energy  :   -27.4496520 Eh     change       -0.1790430E-04 Eh
 * total energy  :   -27.4496751 Eh     change       -0.2313348E-04 Eh
 * total energy  :   -27.4497008 Eh     change       -0.2566703E-04 Eh
 * total energy  :   -27.4497247 Eh     change       -0.2396700E-04 Eh
 * total energy  :   -27.4497356 Eh     change       -0.1089978E-04 Eh
 * total energy  :   -27.4497461 Eh     change       -0.1044323E-04 Eh
 * total energy  :   -27.4497480 Eh     change       -0.1877225E-05 Eh
   *** GEOMETRY OPTIMIZATION CONVERGED AFTER 59 ITERATIONS ***

 final structure:
================
20
 xtb: 6.5.1 (fef0646)
N            1.23092073771546       -0.12659128179476       -0.46954594897052
C            2.65824094410194        0.08102675398531       -0.05868123084256
C            2.82984510595203       -0.17090212132182        1.43398902024883
C            4.29539937403006       -0.35632745412041        1.84735203647611
C            5.15530724594634        0.90946400243903        1.82303788029595
C            5.65029895469473        1.28059462200695        0.43298035243739
O            6.55193577734103        2.25545139806637        0.38511982506813
O            5.25161613080201        0.75555630882621       -0.57082568317534
H            1.12414078890453        0.03266006257292       -1.47864189920270
H            0.61528764284951        0.52213948967762        0.03702462724668
H            0.93824875607335       -1.08814188022782       -0.25200454237708
H            2.94649249777659        1.09560788194479       -0.32658556441946
H            3.28915020092118       -0.60049633253716       -0.62891527501484
H            2.30604373120276       -1.09333742264794        1.69705322447675
H            2.38987439240982        0.64361758947466        2.01241069280077
H            4.75781888457689       -1.10343843708211        1.20130958477766
H            4.29909180855319       -0.74583584746356        2.86555382742780
H            6.03000169964914        0.74759614135628        2.45733381045938
H            4.60449687315510        1.75990312672571        2.23408555921045
H            6.83330845334383        2.58936340011964        1.24775970307614

          :  Hamiltonian                  GFN2-xTB          :
         :: total energy             -27.449747968330 Eh    ::
         :: gradient norm              0.000594102933 Eh/a0 ::
         :: HOMO-LUMO gap              5.057599602964 eV    ::
         :: SCC energy               -27.763898674143 Eh    ::
         :: -> dispersion             -0.011322782392 Eh    ::
         :: repulsion energy           0.314107698504 Eh    ::

    * Orbital Energies and Occupations

         #    Occupation            Energy/Eh            Energy/eV
      -------------------------------------------------------------
         1        2.0000           -0.8886214             -24.1806
       ...           ...                  ...                  ...
        12        2.0000           -0.6985945             -19.0097
        13        2.0000           -0.6895058             -18.7624
        14        2.0000           -0.6775812             -18.4379
        15        2.0000           -0.6680547             -18.1787
        16        2.0000           -0.6494034             -17.6712
        17        2.0000           -0.6431034             -17.4997
        18        2.0000           -0.6279203             -17.0866
        19        2.0000           -0.6196531             -16.8616
        20        2.0000           -0.5941138             -16.1667
        21        2.0000           -0.5882183             -16.0062
        22        2.0000           -0.5838732             -15.8880
        23        2.0000           -0.5826335             -15.8543
        24        2.0000           -0.5319510             -14.4751 (HOMO)
        25                         -0.3460877              -9.4175 (LUMO)
        26                         -0.2581667              -7.0251
        27                         -0.1574635              -4.2848
        28                         -0.0963206              -2.6210
        29                         -0.0954012              -2.5960
        30                         -0.0722500              -1.9660
        31                         -0.0496370              -1.3507
        32                         -0.0409598              -1.1146
        33                         -0.0307884              -0.8378
        34                         -0.0076807              -0.2090
        35                         -0.0049686              -0.1352
       ...                                ...                  ...
        44                          0.5206003              14.1663
      -------------------------------------------------------------
                  HL-Gap            0.1858634 Eh            5.0576 eV

     #   Z          covCN         q      C6AA      α(0)
     1   7 N        3.482    -0.129    23.796     7.245
     2   6 C        3.730    -0.040    21.392     6.602
     3   6 C        3.800    -0.079    22.002     6.678
     4   6 C        3.801    -0.066    21.768     6.643
     5   6 C        3.800    -0.114    22.671     6.779
     6   6 C        2.687     0.358    20.925     7.486
     7   8 O        1.660    -0.347    19.849     6.014
     8   8 O        0.857    -0.393    21.536     6.222
     9   1 H        0.859     0.273     0.800     1.401
    10   1 H        0.859     0.268     0.817     1.416
    11   1 H        0.859     0.269     0.812     1.412
    12   1 H        0.925     0.117     1.634     1.999
    13   1 H        0.925     0.131     1.527     1.933
    14   1 H        0.924     0.062     2.181     2.310
    15   1 H        0.924     0.064     2.158     2.297
    16   1 H        0.924     0.072     2.062     2.246
    17   1 H        0.925     0.072     2.061     2.245
    18   1 H        0.924     0.077     2.010     2.217
    19   1 H        0.924     0.071     2.077     2.254
    20   1 H        0.805     0.334     0.628     1.245

Wiberg/Mayer (AO) data.
largest (>0.10) Wiberg bond orders for each atom

     #   Z sym  total        # sym  WBO       # sym  WBO       # sym  WBO
 ---------------------------------------------------------------------------
     1   7 N    3.674 --     2 C    0.915    10 H    0.913     9 H    0.912
                            11 H    0.910
     2   6 C    3.875 --     3 C    1.010    12 H    0.963    13 H    0.959
                             1 N    0.915
     3   6 C    3.986 --     2 C    1.010     4 C    1.001    15 H    0.974
                            14 H    0.970
     4   6 C    3.988 --     5 C    1.010     3 C    1.001    17 H    0.972
                            16 H    0.972
     5   6 C    3.995 --     4 C    1.010     6 C    0.968    18 H    0.956
                            19 H    0.952
     6   6 C    3.917 --     8 O    1.758     7 O    1.159     5 C    0.968
     7   8 O    2.240 --     6 C    1.159    20 H    0.866     8 O    0.166
     8   8 O    2.048 --     6 C    1.758     7 O    0.166
     9   1 H    0.925 --     1 N    0.912
    10   1 H    0.928 --     1 N    0.913
    11   1 H    0.927 --     1 N    0.910
    12   1 H    0.986 --     2 C    0.963
    13   1 H    0.983 --     2 C    0.959
    14   1 H    0.996 --     3 C    0.970
    15   1 H    0.996 --     3 C    0.974
    16   1 H    0.995 --     4 C    0.972
    17   1 H    0.995 --     4 C    0.972
    18   1 H    0.994 --     5 C    0.956
    19   1 H    0.995 --     5 C    0.952
    20   1 H    0.889 --     7 O    0.866
 ---------------------------------------------------------------------------

molecular dipole:
                 x           y           z       tot (Debye)
 q only:        3.492       0.223       1.086
   full:        3.334       0.329       1.353       9.184

           -------------------------------------------------
          | TOTAL ENERGY              -27.449747968330 Eh   |
          | GRADIENT NORM               0.000594102933 Eh/α |
          | HOMO-LUMO GAP               5.057599602964 eV   |
           -------------------------------------------------

 * finished run on 2023/01/23 at 20:05:39.664
