   * xtb version 6.5.1 (fef0646) compiled by 'conda@b96dff2e9fd6' on 2023-01-04
          program call               : xtb init.xyz --opt -c 0 -u 0 -P 16 --input xtb.inp

   ID    Z sym.   atoms
    1    7 N      1
    2    6 C      2-12
    3   17 Cl     13
    4    1 H      14-25

          :  Hamiltonian                  GFN2-xTB          :
 * total energy  :   -37.1086952 Eh     change       -0.7599041E-09 Eh
 * total energy  :   -37.1177116 Eh     change       -0.9016472E-02 Eh
 * total energy  :   -37.1225082 Eh     change       -0.4796587E-02 Eh
 * total energy  :   -37.1247228 Eh     change       -0.2214549E-02 Eh
 * total energy  :   -37.1272932 Eh     change       -0.2570388E-02 Eh
 * total energy  :   -37.1289462 Eh     change       -0.1653067E-02 Eh
 * total energy  :   -37.1299068 Eh     change       -0.9605360E-03 Eh
 * total energy  :   -37.1302978 Eh     change       -0.3910796E-03 Eh
 * total energy  :   -37.1304262 Eh     change       -0.1283688E-03 Eh
 * total energy  :   -37.1304762 Eh     change       -0.4994744E-04 Eh
 * total energy  :   -37.1306763 Eh     change       -0.1081985E-03 Eh
 * total energy  :   -37.1307706 Eh     change       -0.9426144E-04 Eh
 * total energy  :   -37.1308288 Eh     change       -0.5817137E-04 Eh
 * total energy  :   -37.1308535 Eh     change       -0.2471992E-04 Eh
 * total energy  :   -37.1308698 Eh     change       -0.1634155E-04 Eh
 * total energy  :   -37.1308804 Eh     change       -0.1062549E-04 Eh
 * total energy  :   -37.1308944 Eh     change       -0.1391070E-04 Eh
 * total energy  :   -37.1309015 Eh     change       -0.7125912E-05 Eh
 * total energy  :   -37.1309051 Eh     change       -0.3656544E-05 Eh
   *** GEOMETRY OPTIMIZATION CONVERGED AFTER 20 ITERATIONS ***

 final structure:
================
25
 xtb: 6.5.1 (fef0646)
N            1.05278330613846       -0.12388501751600       -0.03370320645263
C            2.51284590787650       -0.28742059801217       -0.00434462876332
C            3.02027465899779       -0.08486575161785        1.39871997371381
C            3.38013965582925       -1.19722682443734        2.18300600511509
C            3.81707901230468       -1.03618885790172        3.46738050282580
C            3.10255276046153        1.17377573001169        1.93558846226475
C            3.54317057858641        1.37313728483051        3.25851878783366
C            3.91151240191514        0.24783461537950        4.04176707790681
C            4.35802180958314        0.45186730977083        5.36395591334155
C            4.43412557947200        1.71210809612606        5.88689481953945
C            4.06550780156465        2.82515876936558        5.11397631510918
C            3.63021664180225        2.66044834764060        3.82937036778850
Cl           0.22250211102152        2.66606053208421        0.31606322153214
H            0.67953274964623       -0.36588672349455       -0.94573754393056
H            0.63965097005745        1.36364803974518        0.19274706283789
H            0.61431059706241       -0.71174581256535        0.66816745506010
H            2.93474125484951        0.46918185990299       -0.67098037760949
H            2.81770697582763       -1.27901142959170       -0.36663817161896
H            3.31359112422731       -2.18797132166898        1.75446420513849
H            4.09630816203186       -1.89427681798121        4.06227745917740
H            2.81963779394366        2.03225427118828        1.34605415625680
H            4.63851549569612       -0.40802562095665        5.95600106067533
H            4.77744289460087        1.86180857148062        6.90022501031818
H            4.12946234655686        3.81305104669840        5.54621082426140
H            3.34173740994648        3.51138030151912        3.22983524767923

          :  Hamiltonian                  GFN2-xTB          :
         :: total energy             -37.130905137699 Eh    ::
         :: gradient norm              0.000340758470 Eh/a0 ::
         :: HOMO-LUMO gap              3.215152188436 eV    ::
         :: SCC energy               -37.716472164658 Eh    ::
         :: -> dispersion             -0.024323562555 Eh    ::
         :: repulsion energy           0.585465684799 Eh    ::

    * Orbital Energies and Occupations

         #    Occupation            Energy/Eh            Energy/eV
      -------------------------------------------------------------
         1        2.0000           -1.0172165             -27.6799
       ...           ...                  ...                  ...
        22        2.0000           -0.4735571             -12.8861
        23        2.0000           -0.4685172             -12.7490
        24        2.0000           -0.4646197             -12.6429
        25        2.0000           -0.4529260             -12.3247
        26        2.0000           -0.4423482             -12.0369
        27        2.0000           -0.4273829             -11.6297
        28        2.0000           -0.4212865             -11.4638
        29        2.0000           -0.4158498             -11.3159
        30        2.0000           -0.4022842             -10.9467
        31        2.0000           -0.3995334             -10.8719
        32        2.0000           -0.3942288             -10.7275
        33        2.0000           -0.3938848             -10.7182
        34        2.0000           -0.3804536             -10.3527 (HOMO)
        35                         -0.2622989              -7.1375 (LUMO)
        36                         -0.2321363              -6.3168
        37                         -0.1908247              -5.1926
        38                         -0.1508952              -4.1061
        39                         -0.0622663              -1.6944
        40                         -0.0524341              -1.4268
        41                          0.0321569               0.8750
        42                          0.0665233               1.8102
        43                          0.0671621               1.8276
        44                          0.0722748               1.9667
        45                          0.0728782               1.9831
       ...                                ...                  ...
        69                          0.6958457              18.9349
      -------------------------------------------------------------
                  HL-Gap            0.1181547 Eh            3.2152 eV

     #   Z          covCN         q      C6AA      α(0)
     1   7 N        2.695    -0.304    27.814     7.833
     2   6 C        3.737     0.003    20.603     6.477
     3   6 C        2.967     0.000    28.025     8.683
     4   6 C        2.919    -0.040    28.994     8.830
     5   6 C        2.917    -0.037    28.909     8.817
     6   6 C        2.923    -0.042    29.038     8.837
     7   6 C        2.987     0.016    27.650     8.626
     8   6 C        2.987     0.012    27.739     8.639
     9   6 C        2.918    -0.035    28.871     8.811
    10   6 C        2.916    -0.029    28.722     8.788
    11   6 C        2.916    -0.029    28.718     8.788
    12   6 C        2.918    -0.032    28.810     8.802
    13  17 Cl       0.837    -0.484   115.109    16.413
    14   1 H        0.860     0.167     1.294     1.782
    15   1 H        0.900     0.331     0.624     1.236
    16   1 H        0.860     0.167     1.293     1.781
    17   1 H        0.924     0.056     2.245     2.343
    18   1 H        0.923     0.028     2.615     2.529
    19   1 H        0.925     0.027     2.635     2.538
    20   1 H        0.926     0.033     2.547     2.496
    21   1 H        0.926     0.058     2.223     2.332
    22   1 H        0.926     0.031     2.574     2.509
    23   1 H        0.926     0.031     2.573     2.508
    24   1 H        0.926     0.032     2.551     2.498
    25   1 H        0.926     0.040     2.450     2.448

Wiberg/Mayer (AO) data.
largest (>0.10) Wiberg bond orders for each atom

     #   Z sym  total        # sym  WBO       # sym  WBO       # sym  WBO
 ---------------------------------------------------------------------------
     1   7 N    3.236 --     2 C    0.993    16 H    0.959    14 H    0.958
                            15 H    0.207
     2   6 C    3.972 --     3 C    1.003     1 N    0.993    18 H    0.972
                            17 H    0.969
     3   6 C    3.987 --     6 C    1.524     4 C    1.303     2 C    1.003
     4   6 C    3.992 --     5 C    1.557     3 C    1.303    19 H    0.969
     5   6 C    3.992 --     4 C    1.557     8 C    1.280    20 H    0.968
                             6 C    0.117
     6   6 C    3.989 --     3 C    1.524     7 C    1.286    21 H    0.963
                             5 C    0.117
     7   6 C    3.991 --     6 C    1.286    12 C    1.276     8 C    1.250
     8   6 C    3.990 --     5 C    1.280     9 C    1.279     7 C    1.250
     9   6 C    3.992 --    10 C    1.558     8 C    1.279    22 H    0.968
                            12 C    0.119
    10   6 C    3.991 --     9 C    1.558    11 C    1.319    23 H    0.971
    11   6 C    3.992 --    12 C    1.560    10 C    1.319    24 H    0.971
    12   6 C    3.990 --    11 C    1.560     7 C    1.276    25 H    0.968
                             9 C    0.119
    13  17 Cl   0.769 --    15 H    0.679
    14   1 H    0.971 --     1 N    0.958
    15   1 H    0.890 --    13 Cl   0.679     1 N    0.207
    16   1 H    0.972 --     1 N    0.959
    17   1 H    0.996 --     2 C    0.969
    18   1 H    0.999 --     2 C    0.972
    19   1 H    0.999 --     4 C    0.969
    20   1 H    0.998 --     5 C    0.968
    21   1 H    0.996 --     6 C    0.963
    22   1 H    0.999 --     9 C    0.968
    23   1 H    0.999 --    10 C    0.971
    24   1 H    0.998 --    11 C    0.971
    25   1 H    0.998 --    12 C    0.968
 ---------------------------------------------------------------------------

molecular dipole:
                 x           y           z       tot (Debye)
 q only:        0.718      -1.620      -0.062
   full:        0.504      -1.615      -0.120       4.311

           -------------------------------------------------
          | TOTAL ENERGY              -37.130905137699 Eh   |
          | GRADIENT NORM               0.000340758470 Eh/α |
          | HOMO-LUMO GAP               3.215152188436 eV   |
           -------------------------------------------------

 * finished run on 2023/01/23 at 18:47:15.241
