   * xtb version 6.5.1 (fef0646) compiled by 'conda@b96dff2e9fd6' on 2023-01-04
          program call               : xtb init.xyz --opt -c 0 -u 0 -P 16 --alpb water

   ID    Z sym.   atoms
    1    7 N      1
    2    6 C      2-12
    3   17 Cl     13
    4    1 H      14-25

      * Solvation model:               ALPB
        Solvent                        water
        Solvent mass                       1.8000E+01 g/mol
          :  Hamiltonian                  GFN2-xTB          :
 * total energy  :   -37.1581941 Eh     change       -0.2220233E-09 Eh
 * total energy  :   -37.1658491 Eh     change       -0.7654961E-02 Eh
 * total energy  :   -37.1675159 Eh     change       -0.1666802E-02 Eh
 * total energy  :   -37.1677666 Eh     change       -0.2507689E-03 Eh
 * total energy  :   -37.1678709 Eh     change       -0.1042233E-03 Eh
 * total energy  :   -37.1679681 Eh     change       -0.9727289E-04 Eh
 * total energy  :   -37.1682754 Eh     change       -0.3072625E-03 Eh
 * total energy  :   -37.1686222 Eh     change       -0.3467667E-03 Eh
 * total energy  :   -37.1701498 Eh     change       -0.1527677E-02 Eh
 * total energy  :   -37.1714922 Eh     change       -0.1342374E-02 Eh
 * total energy  :   -37.1738953 Eh     change       -0.2592519E-04 Eh
 * total energy  :   -37.1739163 Eh     change       -0.2093201E-04 Eh
 * total energy  :   -37.1739340 Eh     change       -0.1774564E-04 Eh
 * total energy  :   -37.1739494 Eh     change       -0.1535579E-04 Eh
 * total energy  :   -37.1739632 Eh     change       -0.1381988E-04 Eh
 * total energy  :   -37.1739755 Eh     change       -0.1235700E-04 Eh
 * total energy  :   -37.1739873 Eh     change       -0.1178656E-04 Eh
 * total energy  :   -37.1739977 Eh     change       -0.1032202E-04 Eh
 * total energy  :   -37.1740007 Eh     change       -0.3044202E-05 Eh
   *** GEOMETRY OPTIMIZATION CONVERGED AFTER 44 ITERATIONS ***

 final structure:
================
25
 xtb: 6.5.1 (fef0646)
N            1.18629016352514        0.01017276788450        0.02565657520416
C            2.57086198210897       -0.50206780752347        0.14096329180527
C            3.13026219569251       -0.28402581261506        1.52229228264211
C            3.68572005197810       -1.36447843058973        2.23450651520106
C            4.20399842446520       -1.18490463564568        3.48592889131695
C            3.10987857206697        0.96354083770261        2.09239407108707
C            3.63117146169336        1.17885146758457        3.38338571044402
C            4.19052551327525        0.08618083537353        4.09685312224834
C            4.71224991041993        0.30934068118943        5.38824710570469
C            4.68358317311255        1.55685353466118        5.94565305263558
C            4.13107647128534        2.63851790473392        5.23964580094740
C            3.61578327334642        2.45379682867641        3.98764665721038
Cl           0.92416169503279        3.06609613982853       -0.03329388395992
H            0.78095822666597       -0.23932919923073       -0.87961426995967
H            1.15561017324193        1.05866837276250        0.08213942307442
H            0.59780160841576       -0.35537371642089        0.77857467417737
H            3.18999394227499        0.02624057898812       -0.58631608059163
H            2.57910752804838       -1.56756673756605       -0.09157595665500
H            3.70397491149166       -2.34362013366648        1.78064682511035
H            4.63026013276190       -2.01514681670101        4.02946915559566
H            2.68853800977011        1.80601817176058        1.56297104751100
H            5.13592601148204       -0.52412473359770        5.92978995464048
H            5.08493448612565        1.72319721167231        6.93447246977454
H            4.11728771130344        3.61755323518933        5.69626126343511
H            3.18572437041537        3.27919945554886        3.43697230139992

          :  Hamiltonian                  GFN2-xTB          :
         :: total energy             -37.174000698508 Eh    ::
         :: gradient norm              0.000196011301 Eh/a0 ::
         :: HOMO-LUMO gap              3.213089610926 eV    ::
         :: SCC energy               -37.767613105618 Eh    ::
         :: -> dispersion             -0.023570144136 Eh    ::
         :: -> Gsolv                  -0.074065484584 Eh    ::
         :: repulsion energy           0.593551577222 Eh    ::

    * Orbital Energies and Occupations

         #    Occupation            Energy/Eh            Energy/eV
      -------------------------------------------------------------
         1        2.0000           -1.0073946             -27.4126
       ...           ...                  ...                  ...
        22        2.0000           -0.4676845             -12.7263
        23        2.0000           -0.4608399             -12.5401
        24        2.0000           -0.4596663             -12.5082
        25        2.0000           -0.4455547             -12.1242
        26        2.0000           -0.4363361             -11.8733
        27        2.0000           -0.4215615             -11.4713
        28        2.0000           -0.4159213             -11.3178
        29        2.0000           -0.4106887             -11.1754
        30        2.0000           -0.4040564             -10.9949
        31        2.0000           -0.4011598             -10.9161
        32        2.0000           -0.3990179             -10.8578
        33        2.0000           -0.3960796             -10.7779
        34        2.0000           -0.3748009             -10.1989 (HOMO)
        35                         -0.2567221              -6.9858 (LUMO)
        36                         -0.2265489              -6.1647
        37                         -0.1855258              -5.0484
        38                         -0.1454200              -3.9571
        39                         -0.0561292              -1.5274
        40                         -0.0156285              -0.4253
        41                          0.0781471               2.1265
        42                          0.0933248               2.5395
        43                          0.1007587               2.7418
        44                          0.1116801               3.0390
        45                          0.1164903               3.1699
       ...                                ...                  ...
        69                          0.6998398              19.0436
      -------------------------------------------------------------
                  HL-Gap            0.1180789 Eh            3.2131 eV

     #   Z          covCN         q      C6AA      α(0)
     1   7 N        3.483    -0.166    24.588     7.365
     2   6 C        3.737    -0.035    21.283     6.583
     3   6 C        2.966     0.008    27.836     8.654
     4   6 C        2.919    -0.045    29.128     8.850
     5   6 C        2.917    -0.041    29.007     8.832
     6   6 C        2.923    -0.045    29.111     8.848
     7   6 C        2.987     0.012    27.745     8.640
     8   6 C        2.987     0.010    27.795     8.648
     9   6 C        2.918    -0.041    29.017     8.833
    10   6 C        2.916    -0.036    28.883     8.813
    11   6 C        2.916    -0.035    28.874     8.811
    12   6 C        2.918    -0.036    28.891     8.814
    13  17 Cl       0.039    -0.947   124.877    17.007
    14   1 H        0.859     0.306     0.696     1.307
    15   1 H        0.896     0.292     0.733     1.340
    16   1 H        0.859     0.299     0.718     1.327
    17   1 H        0.924     0.110     1.693     2.035
    18   1 H        0.924     0.114     1.662     2.016
    19   1 H        0.926     0.058     2.221     2.331
    20   1 H        0.926     0.043     2.408     2.426
    21   1 H        0.926     0.054     2.267     2.355
    22   1 H        0.926     0.039     2.464     2.455
    23   1 H        0.926     0.033     2.551     2.497
    24   1 H        0.926     0.026     2.646     2.544
    25   1 H        0.925     0.023     2.685     2.563

Wiberg/Mayer (AO) data.
largest (>0.10) Wiberg bond orders for each atom

     #   Z sym  total        # sym  WBO       # sym  WBO       # sym  WBO
 ---------------------------------------------------------------------------
     1   7 N    3.645 --     2 C    0.964    16 H    0.896    14 H    0.892
                            15 H    0.836
     2   6 C    3.929 --     3 C    1.008    18 H    0.964     1 N    0.964
                            17 H    0.955
     3   6 C    3.988 --     6 C    1.523     4 C    1.301     2 C    1.008
     4   6 C    3.989 --     5 C    1.558     3 C    1.301    19 H    0.966
     5   6 C    3.991 --     4 C    1.558     8 C    1.280    20 H    0.967
                             6 C    0.118
     6   6 C    3.990 --     3 C    1.523     7 C    1.286    21 H    0.960
                             5 C    0.118
     7   6 C    3.991 --     6 C    1.286    12 C    1.276     8 C    1.251
     8   6 C    3.990 --     5 C    1.280     9 C    1.279     7 C    1.251
     9   6 C    3.991 --    10 C    1.559     8 C    1.279    22 H    0.968
                            12 C    0.119
    10   6 C    3.990 --     9 C    1.559    11 C    1.319    23 H    0.971
    11   6 C    3.992 --    12 C    1.560    10 C    1.319    24 H    0.971
    12   6 C    3.992 --    11 C    1.560     7 C    1.276    25 H    0.969
                             9 C    0.119
    13  17 Cl   0.103
    14   1 H    0.906 --     1 N    0.892
    15   1 H    0.914 --     1 N    0.836
    16   1 H    0.911 --     1 N    0.896
    17   1 H    0.987 --     2 C    0.955
    18   1 H    0.987 --     2 C    0.964
    19   1 H    0.996 --     4 C    0.966
    20   1 H    0.997 --     5 C    0.967
    21   1 H    0.997 --     6 C    0.960
    22   1 H    0.998 --     9 C    0.968
    23   1 H    0.998 --    10 C    0.971
    24   1 H    0.999 --    11 C    0.971
    25   1 H    0.999 --    12 C    0.969
 ---------------------------------------------------------------------------

molecular dipole:
                 x           y           z       tot (Debye)
 q only:        0.647      -5.714      -0.045
   full:        0.413      -4.811      -0.039      12.274

           -------------------------------------------------
          | TOTAL ENERGY              -37.174000698508 Eh   |
          | GRADIENT NORM               0.000196011301 Eh/α |
          | HOMO-LUMO GAP               3.213089610926 eV   |
           -------------------------------------------------

 * finished run on 2023/01/24 at 15:13:44.117
