   * xtb version 6.5.1 (fef0646) compiled by 'conda@b96dff2e9fd6' on 2023-01-04
          program call               : xtb init.xyz --opt -c 1 -u 0 -P 16 --alpb water

   ID    Z sym.   atoms
    1    7 N      1
    2    6 C      2-5
    3   53 I      6
    4    1 H      7-17

      * Solvation model:               ALPB
        Solvent                        water
        Solvent mass                       1.8000E+01 g/mol
          :  Hamiltonian                  GFN2-xTB          :
 * total energy  :   -20.5796142 Eh     change       -0.5923795E-10 Eh
 * total energy  :   -20.5818879 Eh     change       -0.2273733E-02 Eh
 * total energy  :   -20.5821730 Eh     change       -0.2850726E-03 Eh
 * total energy  :   -20.5822300 Eh     change       -0.5699068E-04 Eh
 * total energy  :   -20.5822323 Eh     change       -0.2352743E-05 Eh
   *** GEOMETRY OPTIMIZATION CONVERGED AFTER 5 ITERATIONS ***

 final structure:
================
17
 xtb: 6.5.1 (fef0646)
N            0.92561117822818       -0.06060190946897        0.08671546840486
C            2.40763624502544       -0.06314099154193        0.07256477192759
C            2.93143303642715        0.12200464346353       -1.34880794465134
C            4.46255981667322        0.12473554365337       -1.35718929463257
C            4.97923391416854        0.30656711502329       -2.77274333025584
I            7.17588855400333        0.31974162874173       -2.85497626307705
H            0.57260218729765       -0.18693907501748        1.04250032155621
H            0.56209236935803       -0.82124314968612       -0.50002710061160
H            0.56652485422925        0.82917060139259       -0.28004951642369
H            2.76791759785596       -1.00917087794813        0.47652643851027
H            2.77317996899278        0.74400314798875        0.70728919920675
H            2.57918446901395        1.06748166267937       -1.76253424537505
H            2.58059494570885       -0.68720295941144       -1.99018028826179
H            4.83986531944572       -0.81556067898754       -0.95147231599033
H            4.83745611314291        0.93340462335964       -0.72738109256906
H            4.66543708660818        1.25610636625534       -3.19845646788173
H            4.66710234382085       -0.50575569049600       -3.42391833987564

          :  Hamiltonian                  GFN2-xTB          :
         :: total energy             -20.582232303745 Eh    ::
         :: gradient norm              0.000962138725 Eh/a0 ::
         :: HOMO-LUMO gap              4.628596462639 eV    ::
         :: SCC energy               -20.821949945954 Eh    ::
         :: -> dispersion             -0.009139723064 Eh    ::
         :: -> Gsolv                  -0.130677371432 Eh    ::
         :: repulsion energy           0.239743315505 Eh    ::

    * Orbital Energies and Occupations

         #    Occupation            Energy/Eh            Energy/eV
      -------------------------------------------------------------
         1        2.0000           -0.7332208             -19.9520
       ...           ...                  ...                  ...
         7        2.0000           -0.5934502             -16.1486
         8        2.0000           -0.5716435             -15.5552
         9        2.0000           -0.5538917             -15.0722
        10        2.0000           -0.5399991             -14.6941
        11        2.0000           -0.5080617             -13.8251
        12        2.0000           -0.5065135             -13.7829
        13        2.0000           -0.4994251             -13.5900
        14        2.0000           -0.4690952             -12.7647
        15        2.0000           -0.4669493             -12.7063
        16        2.0000           -0.4582130             -12.4686
        17        2.0000           -0.4430248             -12.0553
        18        2.0000           -0.4052260             -11.0268
        19        2.0000           -0.4034674             -10.9789 (HOMO)
        20                         -0.2333696              -6.3503 (LUMO)
        21                         -0.0547343              -1.4894
        22                          0.0244048               0.6641
        23                          0.0298787               0.8130
        24                          0.0361986               0.9850
        25                          0.0496113               1.3500
        26                          0.0564138               1.5351
        27                          0.0731221               1.9898
        28                          0.0956303               2.6022
        29                          0.1007395               2.7413
        30                          0.1356518               3.6913
       ...                                ...                  ...
        40                          0.3389272               9.2227
      -------------------------------------------------------------
                  HL-Gap            0.1700978 Eh            4.6286 eV

     #   Z          covCN         q      C6AA      α(0)
     1   7 N        3.485    -0.162    24.483     7.349
     2   6 C        3.733    -0.039    21.362     6.597
     3   6 C        3.804    -0.088    22.179     6.705
     4   6 C        3.891    -0.073    21.834     6.643
     5   6 C        3.779    -0.007    20.733     6.487
     6  53 I        1.050    -0.224   388.729    34.035
     7   1 H        0.859     0.319     0.660     1.273
     8   1 H        0.859     0.310     0.683     1.295
     9   1 H        0.859     0.311     0.683     1.294
    10   1 H        0.925     0.113     1.671     2.022
    11   1 H        0.925     0.113     1.672     2.022
    12   1 H        0.924     0.076     2.021     2.223
    13   1 H        0.924     0.076     2.023     2.224
    14   1 H        0.924     0.063     2.165     2.301
    15   1 H        0.924     0.063     2.165     2.301
    16   1 H        0.931     0.075     2.036     2.231
    17   1 H        0.931     0.074     2.036     2.231

Wiberg/Mayer (AO) data.
largest (>0.10) Wiberg bond orders for each atom

     #   Z sym  total        # sym  WBO       # sym  WBO       # sym  WBO
 ---------------------------------------------------------------------------
     1   7 N    3.651 --     2 C    0.970     8 H    0.889     9 H    0.889
                             7 H    0.885
     2   6 C    3.924 --     3 C    1.009     1 N    0.970    11 H    0.965
                            10 H    0.965
     3   6 C    3.988 --     2 C    1.009     4 C    0.993    13 H    0.971
                            12 H    0.971
     4   6 C    3.988 --     5 C    1.020     3 C    0.993    15 H    0.974
                            14 H    0.974
     5   6 C    3.942 --     4 C    1.020    16 H    0.976    17 H    0.976
                             6 I    0.953
     6  53 I    1.001 --     5 C    0.953
     7   1 H    0.898 --     1 N    0.885
     8   1 H    0.904 --     1 N    0.889
     9   1 H    0.904 --     1 N    0.889
    10   1 H    0.987 --     2 C    0.965
    11   1 H    0.987 --     2 C    0.965
    12   1 H    0.994 --     3 C    0.971
    13   1 H    0.994 --     3 C    0.971
    14   1 H    0.996 --     4 C    0.974
    15   1 H    0.996 --     4 C    0.974
    16   1 H    0.994 --     5 C    0.976
    17   1 H    0.994 --     5 C    0.976
 ---------------------------------------------------------------------------

molecular dipole:
                 x           y           z       tot (Debye)
 q only:        0.730      -0.144       0.378
   full:        0.546      -0.119       0.187       1.498

           -------------------------------------------------
          | TOTAL ENERGY              -20.582232303745 Eh   |
          | GRADIENT NORM               0.000962138725 Eh/α |
          | HOMO-LUMO GAP               4.628596462639 eV   |
           -------------------------------------------------

 * finished run on 2023/01/24 at 14:57:54.254
