   * xtb version 6.5.1 (fef0646) compiled by 'conda@b96dff2e9fd6' on 2023-01-04
          program call               : xtb init.xyz --opt -c 0 -u 0 -P 16 --input xtb.inp

   ID    Z sym.   atoms
    1    7 N      1
    2    6 C      2-13
    3   17 Cl     14
    4    1 H      15-28

          :  Hamiltonian                  GFN2-xTB          :
 * total energy  :   -40.2739454 Eh     change       -0.1043020E-08 Eh
 * total energy  :   -40.2834504 Eh     change       -0.9505007E-02 Eh
 * total energy  :   -40.2895305 Eh     change       -0.6080093E-02 Eh
 * total energy  :   -40.2925666 Eh     change       -0.3036136E-02 Eh
 * total energy  :   -40.2950375 Eh     change       -0.2470913E-02 Eh
 * total energy  :   -40.2966719 Eh     change       -0.1634398E-02 Eh
 * total energy  :   -40.2980514 Eh     change       -0.1379526E-02 Eh
 * total energy  :   -40.2992150 Eh     change       -0.1163537E-02 Eh
 * total energy  :   -40.2998179 Eh     change       -0.6029306E-03 Eh
 * total energy  :   -40.3000496 Eh     change       -0.2316497E-03 Eh
 * total energy  :   -40.3004791 Eh     change       -0.1296036E-04 Eh
 * total energy  :   -40.3004880 Eh     change       -0.8949174E-05 Eh
 * total energy  :   -40.3005002 Eh     change       -0.1216268E-04 Eh
 * total energy  :   -40.3005150 Eh     change       -0.1476871E-04 Eh
 * total energy  :   -40.3005296 Eh     change       -0.1466499E-04 Eh
 * total energy  :   -40.3005436 Eh     change       -0.1399422E-04 Eh
 * total energy  :   -40.3005529 Eh     change       -0.9298542E-05 Eh
 * total energy  :   -40.3005592 Eh     change       -0.6243466E-05 Eh
 * total energy  :   -40.3005639 Eh     change       -0.4681312E-05 Eh
   *** GEOMETRY OPTIMIZATION CONVERGED AFTER 31 ITERATIONS ***

 final structure:
================
28
 xtb: 6.5.1 (fef0646)
N            0.98581682802508        0.04794858231783        0.22657671608753
C            2.39401935523950        0.26004689252455       -0.14578070850688
C            3.27926864489295       -0.13139413033344        1.03696575392263
C            2.73514506559020       -0.55615087277454       -1.36913786582888
C            2.45703981825816       -1.93782676912237       -1.39585611655216
C            2.77237456377319       -2.68728390212951       -2.49256105540944
C            3.32570912295129        0.03265207702604       -2.45617404342682
C            3.66402262132543       -0.71429090692429       -3.60315435292511
C            3.38196605350084       -2.10457941160406       -3.62350607302486
C            3.71692773587418       -2.85264189869236       -4.77082195102997
C            4.30125634942186       -2.25110691266973       -5.85010474111029
C            4.57798047524126       -0.87500744116847       -5.83091339698273
C            4.26768613787881       -0.12331281691153       -4.73250193172904
Cl           0.36710856547709       -2.41617064633878        1.66536718035812
H            0.68679476978976        0.74405853877046        0.90103852808421
H            0.70604539106248       -1.26470397785992        0.95818401220888
H            0.38353069151954        0.09360573636178       -0.58827213404427
H            2.57216609302922        1.32207089311001       -0.38204761164457
H            3.11785605044011       -1.17345981421726        1.29318053835327
H            3.04341158223580        0.47996466396749        1.90455213029041
H            4.32528186587840        0.01224997589756        0.78071841497202
H            1.98707799516042       -2.39575576069195       -0.54076304736967
H            2.55658570386397       -3.74581002799503       -2.50806004202183
H            3.54616403552090        1.09208674404435       -2.45070064704744
H            3.50192866792531       -3.91170632466314       -4.78013134239364
H            4.55486444056803       -2.82963399327433       -6.72641401247915
H            5.03863352189999       -0.41575945384292       -6.69342348551630
H            4.47969785365876        0.93654095719120       -4.71407871523029

          :  Hamiltonian                  GFN2-xTB          :
         :: total energy             -40.300563858825 Eh    ::
         :: gradient norm              0.000465982651 Eh/a0 ::
         :: HOMO-LUMO gap              3.242343811973 eV    ::
         :: SCC energy               -40.934099197039 Eh    ::
         :: -> dispersion             -0.027714251890 Eh    ::
         :: repulsion energy           0.633502260463 Eh    ::

    * Orbital Energies and Occupations

         #    Occupation            Energy/Eh            Energy/eV
      -------------------------------------------------------------
         1        2.0000           -1.0163059             -27.6551
       ...           ...                  ...                  ...
        25        2.0000           -0.4697538             -12.7827
        26        2.0000           -0.4649216             -12.6512
        27        2.0000           -0.4585152             -12.4768
        28        2.0000           -0.4510691             -12.2742
        29        2.0000           -0.4413145             -12.0088
        30        2.0000           -0.4287603             -11.6672
        31        2.0000           -0.4200799             -11.4310
        32        2.0000           -0.4169687             -11.3463
        33        2.0000           -0.4016310             -10.9289
        34        2.0000           -0.3974989             -10.8165
        35        2.0000           -0.3930215             -10.6947
        36        2.0000           -0.3924126             -10.6781
        37        2.0000           -0.3817912             -10.3891 (HOMO)
        38                         -0.2626373              -7.1467 (LUMO)
        39                         -0.2321419              -6.3169
        40                         -0.1918781              -5.2213
        41                         -0.1502970              -4.0898
        42                         -0.0624365              -1.6990
        43                         -0.0528521              -1.4382
        44                          0.0194318               0.5288
        45                          0.0682791               1.8580
        46                          0.0696532               1.8954
        47                          0.0727922               1.9808
        48                          0.0751115               2.0439
       ...                                ...                  ...
        75                          0.6935040              18.8712
      -------------------------------------------------------------
                  HL-Gap            0.1191539 Eh            3.2423 eV

     #   Z          covCN         q      C6AA      α(0)
     1   7 N        2.733    -0.300    27.719     7.819
     2   6 C        3.786     0.048    19.776     6.334
     3   6 C        3.757    -0.122    22.887     6.821
     4   6 C        2.970    -0.002    28.063     8.689
     5   6 C        2.918    -0.041    29.025     8.835
     6   6 C        2.917    -0.034    28.850     8.808
     7   6 C        2.923    -0.046    29.145     8.853
     8   6 C        2.986     0.012    27.738     8.639
     9   6 C        2.987     0.012    27.743     8.640
    10   6 C        2.918    -0.034    28.853     8.808
    11   6 C        2.916    -0.030    28.745     8.792
    12   6 C        2.916    -0.030    28.744     8.792
    13   6 C        2.918    -0.036    28.887     8.814
    14  17 Cl       0.834    -0.505   115.843    16.465
    15   1 H        0.860     0.169     1.278     1.771
    16   1 H        0.932     0.332     0.620     1.231
    17   1 H        0.860     0.168     1.287     1.777
    18   1 H        0.923     0.022     2.706     2.573
    19   1 H        0.925     0.070     2.090     2.261
    20   1 H        0.925     0.047     2.361     2.403
    21   1 H        0.925     0.048     2.344     2.394
    22   1 H        0.926     0.063     2.164     2.300
    23   1 H        0.926     0.038     2.480     2.463
    24   1 H        0.925     0.027     2.632     2.537
    25   1 H        0.926     0.033     2.543     2.494
    26   1 H        0.926     0.031     2.575     2.509
    27   1 H        0.926     0.030     2.583     2.513
    28   1 H        0.926     0.030     2.589     2.516

Wiberg/Mayer (AO) data.
largest (>0.10) Wiberg bond orders for each atom

     #   Z sym  total        # sym  WBO       # sym  WBO       # sym  WBO
 ---------------------------------------------------------------------------
     1   7 N    3.264 --     2 C    0.981    17 H    0.957    15 H    0.957
                            16 H    0.233
     2   6 C    3.971 --     3 C    0.996     4 C    0.994     1 N    0.981
                            18 H    0.963
     3   6 C    3.989 --     2 C    0.996    21 H    0.984    20 H    0.984
                            19 H    0.981
     4   6 C    3.987 --     7 C    1.533     5 C    1.292     2 C    0.994
     5   6 C    3.989 --     6 C    1.566     4 C    1.292    22 H    0.961
     6   6 C    3.992 --     5 C    1.566     9 C    1.276    23 H    0.968
                             7 C    0.114
     7   6 C    3.991 --     4 C    1.533     8 C    1.279    24 H    0.966
                             6 C    0.114
     8   6 C    3.990 --    13 C    1.280     7 C    1.279     9 C    1.252
     9   6 C    3.990 --    10 C    1.282     6 C    1.276     8 C    1.252
    10   6 C    3.992 --    11 C    1.556     9 C    1.282    25 H    0.968
                            13 C    0.118
    11   6 C    3.990 --    10 C    1.556    12 C    1.322    26 H    0.971
    12   6 C    3.992 --    13 C    1.557    11 C    1.322    27 H    0.971
    13   6 C    3.990 --    12 C    1.557     8 C    1.280    28 H    0.969
                            10 C    0.118
    14  17 Cl   0.751 --    16 H    0.648
    15   1 H    0.971 --     1 N    0.957
    16   1 H    0.890 --    14 Cl   0.648     1 N    0.233
    17   1 H    0.972 --     1 N    0.957
    18   1 H    0.999 --     2 C    0.963
    19   1 H    0.995 --     3 C    0.981
    20   1 H    0.997 --     3 C    0.984
    21   1 H    0.998 --     3 C    0.984
    22   1 H    0.996 --     5 C    0.961
    23   1 H    0.998 --     6 C    0.968
    24   1 H    0.999 --     7 C    0.966
    25   1 H    0.998 --    10 C    0.968
    26   1 H    0.999 --    11 C    0.971
    27   1 H    0.999 --    12 C    0.971
    28   1 H    0.999 --    13 C    0.969
 ---------------------------------------------------------------------------

molecular dipole:
                 x           y           z       tot (Debye)
 q only:        0.603       1.501      -0.967
   full:        0.361       1.485      -0.827       4.417

           -------------------------------------------------
          | TOTAL ENERGY              -40.300563858825 Eh   |
          | GRADIENT NORM               0.000465982651 Eh/α |
          | HOMO-LUMO GAP               3.242343811973 eV   |
           -------------------------------------------------

 * finished run on 2023/01/23 at 21:06:57.410
