   * xtb version 6.5.1 (fef0646) compiled by 'conda@b96dff2e9fd6' on 2023-01-04
          program call               : xtb init.xyz --opt -c 1 -u 0 -P 16 --input xtb.inp

   ID    Z sym.   atoms
    1    7 N      1
    2    6 C      2-7
    3   16 S      8
    4    1 H      9-18

          :  Hamiltonian                  GFN2-xTB          :
 * total energy  :   -23.6579492 Eh     change       -0.8000356E-10 Eh
 * total energy  :   -23.6604651 Eh     change       -0.2515908E-02 Eh
 * total energy  :   -23.6614052 Eh     change       -0.9400809E-03 Eh
 * total energy  :   -23.6619474 Eh     change       -0.5422325E-03 Eh
 * total energy  :   -23.6623454 Eh     change       -0.3979838E-03 Eh
 * total energy  :   -23.6626396 Eh     change       -0.2942169E-03 Eh
 * total energy  :   -23.6628569 Eh     change       -0.2173114E-03 Eh
 * total energy  :   -23.6629865 Eh     change       -0.1295824E-03 Eh
 * total energy  :   -23.6630361 Eh     change       -0.4959534E-04 Eh
 * total energy  :   -23.6630599 Eh     change       -0.2376700E-04 Eh
 * total energy  :   -23.6630777 Eh     change       -0.1783035E-04 Eh
 * total energy  :   -23.6630875 Eh     change       -0.9764910E-05 Eh
 * total energy  :   -23.6630945 Eh     change       -0.7009111E-05 Eh
 * total energy  :   -23.6630978 Eh     change       -0.3338071E-05 Eh
 * total energy  :   -23.6631018 Eh     change       -0.3980734E-05 Eh
   *** GEOMETRY OPTIMIZATION CONVERGED AFTER 15 ITERATIONS ***

 final structure:
================
18
 xtb: 6.5.1 (fef0646)
N            2.82879357724856        1.32714478150685       -0.81752951344579
C            2.49018243081898        0.10643948280928       -0.03250980383138
C            3.06362343835404       -1.12392397716561       -0.73980334976683
C            4.55607725226211       -1.07634379447418       -0.78459886900798
C            5.45530873080868       -1.72674443605997       -0.00403371827243
C            6.79879616431446       -1.38589377386854       -0.29800929111305
C            6.91351954197914       -0.47233618726994       -1.28836127423504
S            5.37882968576906       -0.02394110686765       -1.92401518317009
H            2.66194630916584        2.18835130768829       -0.28772030539258
H            2.28316876694262        1.36026769521898       -1.68626868046385
H            3.84196726954258        1.25536792502018       -1.08790110164311
H            1.40765281165854        0.02600065763443        0.06656086014090
H            2.93260460616068        0.20078119736546        0.96020171336134
H            2.65454438201129       -1.19363314433170       -1.74976045140381
H            2.75283222593464       -2.01392404653042       -0.19246403320198
H            5.18084210852682       -2.43536256084375        0.75606091820632
H            7.64360154297323       -1.81040256818368        0.21181960866011
H            7.79492915552860       -0.03744745164812       -1.71409752542082

          :  Hamiltonian                  GFN2-xTB          :
         :: total energy             -23.663101789785 Eh    ::
         :: gradient norm              0.000547486903 Eh/a0 ::
         :: HOMO-LUMO gap              3.918789177594 eV    ::
         :: SCC energy               -24.011161608391 Eh    ::
         :: -> dispersion             -0.013408565206 Eh    ::
         :: repulsion energy           0.348007142704 Eh    ::

    * Orbital Energies and Occupations

         #    Occupation            Energy/Eh            Energy/eV
      -------------------------------------------------------------
         1        2.0000           -0.8853245             -24.0909
       ...           ...                  ...                  ...
        10        2.0000           -0.7000193             -19.0485
        11        2.0000           -0.6874564             -18.7066
        12        2.0000           -0.6775716             -18.4377
        13        2.0000           -0.6649174             -18.0933
        14        2.0000           -0.6494502             -17.6724
        15        2.0000           -0.6361846             -17.3115
        16        2.0000           -0.6112743             -16.6336
        17        2.0000           -0.6063090             -16.4985
        18        2.0000           -0.5944535             -16.1759
        19        2.0000           -0.5863368             -15.9550
        20        2.0000           -0.5781093             -15.7312
        21        2.0000           -0.5333341             -14.5128
        22        2.0000           -0.5243901             -14.2694 (HOMO)
        23                         -0.3803772             -10.3506 (LUMO)
        24                         -0.3477461              -9.4627
        25                         -0.3010876              -8.1930
        26                         -0.2605855              -7.0909
        27                         -0.2445732              -6.6552
        28                         -0.1650149              -4.4903
        29                         -0.1385402              -3.7699
        30                         -0.1222440              -3.3264
        31                         -0.1209113              -3.2902
        32                         -0.0852622              -2.3201
        33                         -0.0613157              -1.6685
       ...                                ...                  ...
        47                          0.5673331              15.4379
      -------------------------------------------------------------
                  HL-Gap            0.1440129 Eh            3.9188 eV

     #   Z          covCN         q      C6AA      α(0)
     1   7 N        3.482    -0.146    24.142     7.298
     2   6 C        3.732    -0.031    21.228     6.576
     3   6 C        3.822    -0.088    22.166     6.700
     4   6 C        2.986    -0.001    28.044     8.687
     5   6 C        3.107    -0.043    28.931     8.813
     6   6 C        3.122    -0.033    28.635     8.764
     7   6 C        2.934    -0.009    28.248     8.716
     8  16 S        2.338    -0.062   143.622    20.170
     9   1 H        0.859     0.266     0.824     1.422
    10   1 H        0.859     0.269     0.812     1.412
    11   1 H        0.868     0.284     0.763     1.368
    12   1 H        0.925     0.108     1.716     2.049
    13   1 H        0.924     0.108     1.711     2.045
    14   1 H        0.924     0.081     1.972     2.196
    15   1 H        0.925     0.102     1.770     2.080
    16   1 H        0.926     0.063     2.164     2.300
    17   1 H        0.926     0.068     2.106     2.269
    18   1 H        0.927     0.065     2.137     2.286

Wiberg/Mayer (AO) data.
largest (>0.10) Wiberg bond orders for each atom

     #   Z sym  total        # sym  WBO       # sym  WBO       # sym  WBO
 ---------------------------------------------------------------------------
     1   7 N    3.663 --     2 C    0.939     9 H    0.915    10 H    0.912
                            11 H    0.844
     2   6 C    3.902 --     3 C    0.994    13 H    0.967    12 H    0.967
                             1 N    0.939
     3   6 C    3.982 --     4 C    1.022     2 C    0.994    14 H    0.963
                            15 H    0.956
     4   6 C    3.942 --     5 C    1.626     8 S    1.122     3 C    1.022
                             7 C    0.121
     5   6 C    3.988 --     4 C    1.626     6 C    1.253    16 H    0.960
     6   6 C    3.989 --     7 C    1.662     5 C    1.253    17 H    0.959
     7   6 C    3.945 --     6 C    1.662     8 S    1.156    18 H    0.967
                             4 C    0.121
     8  16 S    2.612 --     7 C    1.156     4 C    1.122
     9   1 H    0.929 --     1 N    0.915
    10   1 H    0.927 --     1 N    0.912
    11   1 H    0.919 --     1 N    0.844
    12   1 H    0.987 --     2 C    0.967
    13   1 H    0.988 --     2 C    0.967
    14   1 H    0.993 --     3 C    0.963
    15   1 H    0.989 --     3 C    0.956
    16   1 H    0.996 --     5 C    0.960
    17   1 H    0.995 --     6 C    0.959
    18   1 H    0.995 --     7 C    0.967
 ---------------------------------------------------------------------------

molecular dipole:
                 x           y           z       tot (Debye)
 q only:        5.878       1.472      -1.156
   full:        6.271       1.372      -1.186      16.592

           -------------------------------------------------
          | TOTAL ENERGY              -23.663101789785 Eh   |
          | GRADIENT NORM               0.000547486903 Eh/α |
          | HOMO-LUMO GAP               3.918789177594 eV   |
           -------------------------------------------------

 * finished run on 2023/01/23 at 19:45:34.976
