   * xtb version 6.5.1 (fef0646) compiled by 'conda@b96dff2e9fd6' on 2023-01-04
          program call               : xtb init.xyz --opt -c 0 -u 0 -P 16 --alpb water

   ID    Z sym.   atoms
    1    7 N      1
    2    6 C      2, 3, 5
    3   16 S      4
    4   17 Cl     6
    5    1 H      7-16

      * Solvation model:               ALPB
        Solvent                        water
        Solvent mass                       1.8000E+01 g/mol
          :  Hamiltonian                  GFN2-xTB          :
 * total energy  :   -22.2524053 Eh     change       -0.2792859E-09 Eh
 * total energy  :   -22.2568517 Eh     change       -0.4446410E-02 Eh
 * total energy  :   -22.2578890 Eh     change       -0.1037333E-02 Eh
 * total energy  :   -22.2582574 Eh     change       -0.3683890E-03 Eh
 * total energy  :   -22.2590629 Eh     change       -0.8054652E-03 Eh
 * total energy  :   -22.2600474 Eh     change       -0.9845129E-03 Eh
 * total energy  :   -22.2609611 Eh     change       -0.9137520E-03 Eh
 * total energy  :   -22.2618706 Eh     change       -0.9095113E-03 Eh
 * total energy  :   -22.2623309 Eh     change       -0.4602288E-03 Eh
 * total energy  :   -22.2625571 Eh     change       -0.2262308E-03 Eh
 * total energy  :   -22.2626138 Eh     change        0.2299436E-05 Eh
 * total energy  :   -22.2627093 Eh     change       -0.9551234E-04 Eh
 * total energy  :   -22.2627546 Eh     change       -0.4531670E-04 Eh
 * total energy  :   -22.2628408 Eh     change       -0.8617809E-04 Eh
 * total energy  :   -22.2628953 Eh     change       -0.5448124E-04 Eh
 * total energy  :   -22.2629852 Eh     change       -0.8993762E-04 Eh
 * total energy  :   -22.2630051 Eh     change       -0.1989103E-04 Eh
 * total energy  :   -22.2630177 Eh     change       -0.1261752E-04 Eh
 * total energy  :   -22.2630203 Eh     change       -0.2617034E-05 Eh
   *** GEOMETRY OPTIMIZATION CONVERGED AFTER 20 ITERATIONS ***

 final structure:
================
16
 xtb: 6.5.1 (fef0646)
N            1.16261179668629       -0.28089051382135        0.09504665804450
C            2.62093155347306       -0.08725324123915        0.21425333446900
C            3.17505471218605        0.44181809173852       -1.09793143669774
S            4.95826020946304        0.81249602845306       -0.89543296810221
C            5.22403518887177        1.74086661925556       -2.42657463504322
Cl           0.03839232796601        2.34041631631350       -1.02536979824035
H            0.74601858617480       -0.53424575181266        0.99410948905362
H            0.94372418067616       -0.99762711556959       -0.60148851174722
H            0.72101089159101        0.61546082341093       -0.23526383818814
H            3.10886234135510       -1.02726304242231        0.47445109264612
H            2.82097732486671        0.64512097804971        0.99632287653230
H            2.66463438346601        1.36604252511099       -1.37150378955872
H            3.07940498641120       -0.28621855620735       -1.90326885759106
H            6.26983737766025        2.02922979701607       -2.44305845387175
H            4.59002966008836        2.62362928930349       -2.42250273779481
H            4.99544447906412        1.10606775242100       -3.27765842391007

          :  Hamiltonian                  GFN2-xTB          :
         :: total energy             -22.263020329221 Eh    ::
         :: gradient norm              0.000509666565 Eh/a0 ::
         :: HOMO-LUMO gap              4.202756155354 eV    ::
         :: SCC energy               -22.468008921730 Eh    ::
         :: -> dispersion             -0.009358244016 Eh    ::
         :: -> Gsolv                  -0.073634339475 Eh    ::
         :: repulsion energy           0.204956917638 Eh    ::

    * Orbital Energies and Occupations

         #    Occupation            Energy/Eh            Energy/eV
      -------------------------------------------------------------
         1        2.0000           -1.0097141             -27.4757
       ...           ...                  ...                  ...
         8        2.0000           -0.5637715             -15.3410
         9        2.0000           -0.5422652             -14.7558
        10        2.0000           -0.5083814             -13.8338
        11        2.0000           -0.4985708             -13.5668
        12        2.0000           -0.4902949             -13.3416
        13        2.0000           -0.4831555             -13.1473
        14        2.0000           -0.4617830             -12.5658
        15        2.0000           -0.4500548             -12.2466
        16        2.0000           -0.4430761             -12.0567
        17        2.0000           -0.4063202             -11.0565
        18        2.0000           -0.4034309             -10.9779
        19        2.0000           -0.4031250             -10.9696
        20        2.0000           -0.3547089              -9.6521 (HOMO)
        21                         -0.2002604              -5.4494 (LUMO)
        22                         -0.1388829              -3.7792
        23                         -0.0243344              -0.6622
        24                          0.0005089               0.0138
        25                          0.0055448               0.1509
        26                          0.0243024               0.6613
        27                          0.0764030               2.0790
        28                          0.0949040               2.5825
        29                          0.1125985               3.0640
        30                          0.1141574               3.1064
        31                          0.1151944               3.1346
       ...                                ...                  ...
        44                          0.4172214              11.3532
      -------------------------------------------------------------
                  HL-Gap            0.1544484 Eh            4.2028 eV

     #   Z          covCN         q      C6AA      α(0)
     1   7 N        3.484    -0.170    24.670     7.377
     2   6 C        3.773    -0.026    21.061     6.539
     3   6 C        3.795    -0.019    20.925     6.514
     4  16 S        1.981    -0.241   151.393    20.709
     5   6 C        3.745    -0.057    21.664     6.640
     6  17 Cl       0.043    -0.947   124.878    17.007
     7   1 H        0.859     0.313     0.676     1.288
     8   1 H        0.859     0.302     0.708     1.318
     9   1 H        0.900     0.297     0.719     1.327
    10   1 H        0.924     0.118     1.627     1.995
    11   1 H        0.925     0.110     1.699     2.039
    12   1 H        0.925     0.069     2.102     2.267
    13   1 H        0.925     0.073     2.048     2.238
    14   1 H        0.925     0.067     2.119     2.276
    15   1 H        0.925     0.050     2.320     2.382
    16   1 H        0.925     0.062     2.178     2.308

Wiberg/Mayer (AO) data.
largest (>0.10) Wiberg bond orders for each atom

     #   Z sym  total        # sym  WBO       # sym  WBO       # sym  WBO
 ---------------------------------------------------------------------------
     1   7 N    3.643 --     2 C    0.972     8 H    0.894     7 H    0.888
                             9 H    0.832
     2   6 C    3.932 --     3 C    1.014     1 N    0.972    11 H    0.966
                            10 H    0.964
     3   6 C    3.974 --     2 C    1.014     4 S    0.988    13 H    0.972
                            12 H    0.969
     4  16 S    2.074 --     5 C    1.012     3 C    0.988
     5   6 C    3.976 --     4 S    1.012    15 H    0.985    16 H    0.983
                            14 H    0.980
     6  17 Cl   0.103
     7   1 H    0.902 --     1 N    0.888
     8   1 H    0.909 --     1 N    0.894
     9   1 H    0.912 --     1 N    0.832
    10   1 H    0.986 --     2 C    0.964
    11   1 H    0.988 --     2 C    0.966
    12   1 H    0.995 --     3 C    0.969
    13   1 H    0.995 --     3 C    0.972
    14   1 H    0.995 --     5 C    0.980
    15   1 H    0.997 --     5 C    0.985
    16   1 H    0.996 --     5 C    0.983
 ---------------------------------------------------------------------------

molecular dipole:
                 x           y           z       tot (Debye)
 q only:        1.742      -4.533       1.566
   full:        1.151      -3.721       0.961      10.197

           -------------------------------------------------
          | TOTAL ENERGY              -22.263020329221 Eh   |
          | GRADIENT NORM               0.000509666565 Eh/α |
          | HOMO-LUMO GAP               4.202756155354 eV   |
           -------------------------------------------------

 * finished run on 2023/01/24 at 14:58:13.577
