   * xtb version 6.5.1 (fef0646) compiled by 'conda@b96dff2e9fd6' on 2023-01-04
          program call               : xtb init.xyz --opt -c 0 -u 0 -P 16

   ID    Z sym.   atoms
    1    7 N      1
    2    6 C      2-5
    3   35 Br     6
    4   17 Cl     7
    5    1 H      8-18

          :  Hamiltonian                  GFN2-xTB          :
 * total energy  :   -25.6936112 Eh     change       -0.4746070E-10 Eh
 * total energy  :   -25.6925853 Eh     change        0.1025915E-02 Eh
 * total energy  :   -25.6979798 Eh     change       -0.5394482E-02 Eh
 * total energy  :   -25.6991456 Eh     change       -0.1165854E-02 Eh
 * total energy  :   -25.7015914 Eh     change       -0.2445751E-02 Eh
 * total energy  :   -25.7058223 Eh     change       -0.4230899E-02 Eh
 * total energy  :   -25.7103688 Eh     change       -0.4546542E-02 Eh
 * total energy  :   -25.7182121 Eh     change       -0.7843271E-02 Eh
 * total energy  :   -25.7209459 Eh     change       -0.2733827E-02 Eh
 * total energy  :   -25.7221310 Eh     change       -0.1185048E-02 Eh
 * total energy  :   -25.7263237 Eh     change       -0.7202837E-04 Eh
 * total energy  :   -25.7263834 Eh     change       -0.5971410E-04 Eh
 * total energy  :   -25.7264170 Eh     change       -0.3356839E-04 Eh
 * total energy  :   -25.7264414 Eh     change       -0.2437882E-04 Eh
 * total energy  :   -25.7264497 Eh     change       -0.8283859E-05 Eh
 * total energy  :   -25.7264745 Eh     change       -0.2477898E-04 Eh
 * total energy  :   -25.7264890 Eh     change       -0.1453775E-04 Eh
 * total energy  :   -25.7264963 Eh     change       -0.7346341E-05 Eh
 * total energy  :   -25.7265006 Eh     change       -0.4295255E-05 Eh
   *** GEOMETRY OPTIMIZATION CONVERGED AFTER 37 ITERATIONS ***

 final structure:
================
18
 xtb: 6.5.1 (fef0646)
N            0.98574967717004        0.21452266208770        0.20044294177057
C            2.44233544880334        0.24452004683414        0.16187526809162
C            3.05395414670371        1.49177044112034        0.80912744139445
C            4.57861509194407        1.47837842703313        0.71773969220036
C            5.16858903526796        2.70651096509165        1.38577971525694
Br           7.11810183383085        2.72154084065016        1.23067867240151
Cl          -0.01668419214678       -2.22576794789114       -1.13883548109709
H            0.44294332384504       -1.11365505099740       -0.52090240872458
H            0.59297855363060        1.01407037943498       -0.28585894347334
H            0.64803679022203        0.22349489728301        1.15737644214319
H            2.74579464419728        0.18487245887392       -0.88543701828289
H            2.80398370528449       -0.65154753141442        0.67044953146615
H            2.75131549167731        1.53976200606395        1.85929191276879
H            2.66721556266080        2.38453473022378        0.30894652121747
H            4.88094779072138        1.45077162496630       -0.33173185532280
H            4.96663206182821        0.57790673176838        1.19964412008718
H            4.94854813986800        2.73051258532412        2.45176604826918
H            4.82016289449169        3.62633173354730        0.91881739983307

          :  Hamiltonian                  GFN2-xTB          :
         :: total energy             -25.726500631297 Eh    ::
         :: gradient norm              0.000983433731 Eh/a0 ::
         :: HOMO-LUMO gap              4.843730277688 eV    ::
         :: SCC energy               -25.955893893832 Eh    ::
         :: -> dispersion             -0.010943134134 Eh    ::
         :: repulsion energy           0.229457930258 Eh    ::

    * Orbital Energies and Occupations

         #    Occupation            Energy/Eh            Energy/eV
      -------------------------------------------------------------
         1        2.0000           -1.0254670             -27.9044
       ...           ...                  ...                  ...
        11        2.0000           -0.5410625             -14.7231
        12        2.0000           -0.5190362             -14.1237
        13        2.0000           -0.5146151             -14.0034
        14        2.0000           -0.5085802             -13.8392
        15        2.0000           -0.4845550             -13.1854
        16        2.0000           -0.4797005             -13.0533
        17        2.0000           -0.4789855             -13.0339
        18        2.0000           -0.4635144             -12.6129
        19        2.0000           -0.4156472             -11.3103
        20        2.0000           -0.4121384             -11.2149
        21        2.0000           -0.4097857             -11.1508
        22        2.0000           -0.4024993             -10.9526
        23        2.0000           -0.4024660             -10.9517 (HOMO)
        24                         -0.2244622              -6.1079 (LUMO)
        25                         -0.0654790              -1.7818
        26                          0.0005402               0.0147
        27                          0.0201243               0.5476
        28                          0.0331376               0.9017
        29                          0.0407514               1.1089
        30                          0.0505090               1.3744
        31                          0.0572639               1.5582
        32                          0.0573362               1.5602
        33                          0.0633158               1.7229
        34                          0.0633174               1.7230
       ...                                ...                  ...
        49                          0.3713570              10.1051
      -------------------------------------------------------------
                  HL-Gap            0.1780038 Eh            4.8437 eV

     #   Z          covCN         q      C6AA      α(0)
     1   7 N        2.660    -0.312    28.031     7.863
     2   6 C        3.732     0.000    20.666     6.489
     3   6 C        3.802    -0.068    21.810     6.649
     4   6 C        3.864    -0.058    21.578     6.606
     5   6 C        3.742     0.024    20.237     6.418
     6  35 Br       0.979    -0.190   190.296    22.242
     7  17 Cl       0.840    -0.461   114.282    16.354
     8   1 H        0.870     0.332     0.624     1.237
     9   1 H        0.860     0.166     1.298     1.785
    10   1 H        0.860     0.166     1.300     1.786
    11   1 H        0.924     0.057     2.232     2.336
    12   1 H        0.924     0.057     2.238     2.339
    13   1 H        0.924     0.035     2.517     2.481
    14   1 H        0.924     0.035     2.512     2.478
    15   1 H        0.924     0.052     2.289     2.366
    16   1 H        0.924     0.052     2.298     2.371
    17   1 H        0.926     0.057     2.237     2.339
    18   1 H        0.926     0.057     2.236     2.338

Wiberg/Mayer (AO) data.
largest (>0.10) Wiberg bond orders for each atom

     #   Z sym  total        # sym  WBO       # sym  WBO       # sym  WBO
 ---------------------------------------------------------------------------
     1   7 N    3.212 --     2 C    1.014    10 H    0.959     9 H    0.959
                             8 H    0.174
     2   6 C    3.972 --     1 N    1.014     3 C    0.997    12 H    0.973
                            11 H    0.973
     3   6 C    3.997 --     4 C    0.999     2 C    0.997    13 H    0.977
                            14 H    0.977
     4   6 C    3.993 --     5 C    1.018     3 C    0.999    16 H    0.976
                            15 H    0.976
     5   6 C    3.955 --     4 C    1.018    17 H    0.979    18 H    0.978
                             6 Br   0.963
     6  35 Br   1.007 --     5 C    0.963
     7  17 Cl   0.788 --     8 H    0.713
     8   1 H    0.890 --     7 Cl   0.713     1 N    0.174
     9   1 H    0.972 --     1 N    0.959
    10   1 H    0.973 --     1 N    0.959
    11   1 H    0.997 --     2 C    0.973
    12   1 H    0.997 --     2 C    0.973
    13   1 H    0.999 --     3 C    0.977
    14   1 H    0.999 --     3 C    0.977
    15   1 H    0.997 --     4 C    0.976
    16   1 H    0.997 --     4 C    0.976
    17   1 H    0.997 --     5 C    0.979
    18   1 H    0.997 --     5 C    0.978
 ---------------------------------------------------------------------------

molecular dipole:
                 x           y           z       tot (Debye)
 q only:       -0.144       1.387       0.824
   full:       -0.896       1.383       0.876       4.743

           -------------------------------------------------
          | TOTAL ENERGY              -25.726500631297 Eh   |
          | GRADIENT NORM               0.000983433731 Eh/α |
          | HOMO-LUMO GAP               4.843730277688 eV   |
           -------------------------------------------------

 * finished run on 2023/01/23 at 14:13:48.161
