   * xtb version 6.5.1 (fef0646) compiled by 'conda@b96dff2e9fd6' on 2023-01-04
          program call               : xtb init.xyz --opt -c 1 -u 0 -P 16 --alpb water

   ID    Z sym.   atoms
    1    7 N      1
    2    6 C      2, 3
    3    9 F      4
    4    1 H      5-11

      * Solvation model:               ALPB
        Solvent                        water
        Solvent mass                       1.8000E+01 g/mol
          :  Hamiltonian                  GFN2-xTB          :
 * total energy  :   -15.1685628 Eh     change       -0.2891802E-09 Eh
 * total energy  :   -15.1701838 Eh     change       -0.1621003E-02 Eh
 * total energy  :   -15.1706776 Eh     change       -0.4937730E-03 Eh
 * total energy  :   -15.1707754 Eh     change       -0.9788941E-04 Eh
 * total energy  :   -15.1708863 Eh     change       -0.1108629E-03 Eh
 * total energy  :   -15.1709359 Eh     change       -0.4956561E-04 Eh
 * total energy  :   -15.1709590 Eh     change       -0.2313665E-04 Eh
 * total energy  :   -15.1709732 Eh     change       -0.1419450E-04 Eh
 * total energy  :   -15.1709770 Eh     change       -0.3832405E-05 Eh
   *** GEOMETRY OPTIMIZATION CONVERGED AFTER 9 ITERATIONS ***

 final structure:
================
11
 xtb: 6.5.1 (fef0646)
N            1.02367955009194       -0.03239520986613       -0.08528779924444
C            2.50536874650214       -0.05873442089292       -0.06452109960458
C            3.02215342202524       -1.44511624362082       -0.41241843310993
F            2.63774189455831       -2.33779953202840        0.58317561514466
H            0.67305459473226        0.89379542193881        0.18623463406757
H            0.65680178710996       -0.72981291674313        0.57596374190104
H            0.66628023634334       -0.25853010168605       -1.02233777056708
H            2.85559711023521        0.21031842287879        0.93277485175410
H            2.90413778405419        0.65116948565896       -0.78767668933852
H            4.11181103452036       -1.46683054407981       -0.44776676176243
H            2.60623383982704       -1.83735436155929       -1.34292028924037

          :  Hamiltonian                  GFN2-xTB          :
         :: total energy             -15.170977038876 Eh    ::
         :: gradient norm              0.000595898039 Eh/a0 ::
         :: HOMO-LUMO gap             11.025964251910 eV    ::
         :: SCC energy               -15.317293251666 Eh    ::
         :: -> dispersion             -0.003326179487 Eh    ::
         :: -> Gsolv                  -0.126541158877 Eh    ::
         :: repulsion energy           0.146314513959 Eh    ::

    * Orbital Energies and Occupations

         #    Occupation            Energy/Eh            Energy/eV
      -------------------------------------------------------------
         1        2.0000           -0.8220346             -22.3687
         2        2.0000           -0.7052532             -19.1909
         3        2.0000           -0.6601347             -17.9632
         4        2.0000           -0.6261152             -17.0375
         5        2.0000           -0.5977995             -16.2670
         6        2.0000           -0.5936863             -16.1550
         7        2.0000           -0.5752056             -15.6521
         8        2.0000           -0.5539816             -15.0746
         9        2.0000           -0.5426949             -14.7675
        10        2.0000           -0.5234152             -14.2429
        11        2.0000           -0.4886877             -13.2979
        12        2.0000           -0.4734361             -12.8829
        13        2.0000           -0.4645244             -12.6404 (HOMO)
        14                         -0.0593277              -1.6144 (LUMO)
        15                          0.0118223               0.3217
        16                          0.0523144               1.4235
        17                          0.0704808               1.9179
        18                          0.1090853               2.9684
        19                          0.1297350               3.5303
        20                          0.1591700               4.3312
        21                          0.1904524               5.1825
        22                          0.2256214               6.1395
        23                          0.2475486               6.7361
      -------------------------------------------------------------
                  HL-Gap            0.4051967 Eh           11.0260 eV

     #   Z          covCN         q      C6AA      α(0)
     1   7 N        3.485    -0.156    24.367     7.332
     2   6 C        3.731    -0.046    21.503     6.619
     3   6 C        3.608     0.078    19.778     6.424
     4   9 F        0.783    -0.303    12.350     4.151
     5   1 H        0.859     0.324     0.645     1.258
     6   1 H        0.859     0.311     0.681     1.293
     7   1 H        0.859     0.315     0.671     1.283
     8   1 H        0.924     0.134     1.507     1.920
     9   1 H        0.925     0.137     1.480     1.902
    10   1 H        0.924     0.101     1.780     2.087
    11   1 H        0.924     0.105     1.742     2.064

Wiberg/Mayer (AO) data.
largest (>0.10) Wiberg bond orders for each atom

     #   Z sym  total        # sym  WBO       # sym  WBO       # sym  WBO
 ---------------------------------------------------------------------------
     1   7 N    3.652 --     2 C    0.976     6 H    0.889     7 H    0.886
                             5 H    0.882
     2   6 C    3.928 --     3 C    1.015     1 N    0.976     8 H    0.959
                             9 H    0.957
     3   6 C    3.865 --     2 C    1.015    10 H    0.964    11 H    0.962
                             4 F    0.904
     4   9 F    0.959 --     3 C    0.904
     5   1 H    0.895 --     1 N    0.882
     6   1 H    0.903 --     1 N    0.889
     7   1 H    0.901 --     1 N    0.886
     8   1 H    0.982 --     2 C    0.959
     9   1 H    0.981 --     2 C    0.957
    10   1 H    0.990 --     3 C    0.964
    11   1 H    0.989 --     3 C    0.962
 ---------------------------------------------------------------------------

molecular dipole:
                 x           y           z       tot (Debye)
 q only:        2.385       0.683      -0.839
   full:        2.311       0.659      -0.878       6.503

           -------------------------------------------------
          | TOTAL ENERGY              -15.170977038876 Eh   |
          | GRADIENT NORM               0.000595898039 Eh/α |
          | HOMO-LUMO GAP              11.025964251910 eV   |
           -------------------------------------------------

 * finished run on 2023/01/24 at 16:47:04.755
