   * xtb version 6.5.1 (fef0646) compiled by 'conda@b96dff2e9fd6' on 2023-01-04
          program call               : xtb init.xyz --opt -c 0 -u 0 -P 16

   ID    Z sym.   atoms
    1    7 N      1
    2    6 C      2-5, 7, 9, 11, 13
    3    9 F      6, 8, 10, 12, 14
    4   17 Cl     15
    5    1 H      16-22

          :  Hamiltonian                  GFN2-xTB          :
 * total energy  :   -51.7681529 Eh     change       -0.1957119E-09 Eh
 * total energy  :   -51.7683815 Eh     change       -0.2286342E-03 Eh
 * total energy  :   -51.7725234 Eh     change       -0.4141886E-02 Eh
 * total energy  :   -51.7735597 Eh     change       -0.1036316E-02 Eh
 * total energy  :   -51.7756523 Eh     change       -0.2092652E-02 Eh
 * total energy  :   -51.7796118 Eh     change       -0.3959485E-02 Eh
 * total energy  :   -51.7845203 Eh     change       -0.4908451E-02 Eh
 * total energy  :   -51.7935200 Eh     change       -0.8999760E-02 Eh
 * total energy  :   -51.7968062 Eh     change       -0.3286126E-02 Eh
 * total energy  :   -51.7980702 Eh     change       -0.1264019E-02 Eh
 * total energy  :   -51.8014137 Eh     change       -0.2504566E-04 Eh
 * total energy  :   -51.8014413 Eh     change       -0.2758732E-04 Eh
 * total energy  :   -51.8014622 Eh     change       -0.2095480E-04 Eh
 * total energy  :   -51.8014764 Eh     change       -0.1416798E-04 Eh
 * total energy  :   -51.8014867 Eh     change       -0.1029288E-04 Eh
 * total energy  :   -51.8014968 Eh     change       -0.1008381E-04 Eh
 * total energy  :   -51.8015033 Eh     change       -0.6514378E-05 Eh
 * total energy  :   -51.8015085 Eh     change       -0.5221205E-05 Eh
 * total energy  :   -51.8015094 Eh     change       -0.8901878E-06 Eh
   *** GEOMETRY OPTIMIZATION CONVERGED AFTER 37 ITERATIONS ***

 final structure:
================
22
 xtb: 6.5.1 (fef0646)
N            1.30483671532979       -0.30433378923532        0.41014196903720
C            2.73797662887428       -0.23230539593781        0.15342530286184
C            3.04999781917471        1.07009556106278       -0.59993425639455
C            4.51780558931417        1.20085462443753       -0.87164305346853
C            5.12645679867354        0.48800722405681       -1.90095981837356
F            4.38031089157205       -0.31503389734176       -2.66379023223345
C            6.48929280371919        0.58569362926473       -2.16005057275897
F            7.03901268519399       -0.11161063766303       -3.15498614997319
C            7.28230327415087        1.41472172892217       -1.37154828706832
F            8.58947048318481        1.51596653441580       -1.60842993531518
C            6.70112555449685        2.13346039962080       -0.33187807606781
F            7.45201788042049        2.92676480455667        0.43381931097172
C            5.33546425962943        2.01469401827553       -0.09465277489790
F            4.79528364791064        2.70817742561854        0.91484432241868
Cl          -0.14990697409459        0.15126346861439       -2.13104298167578
H            1.04665466436403       -1.20371490910143        0.79921565892846
H            0.50266899215298       -0.08293097906093       -0.96672269327097
H            1.01375241580778        0.42510802586743        1.05261919430941
H            3.00835282309528       -1.08637469545712       -0.47059993861198
H            3.33470837371851       -0.27244113553119        1.07640353514807
H            2.71300203726326        1.91896497603241       -0.00464814014886
H            2.49801263604877        1.05849301857971       -1.54030238341454

          :  Hamiltonian                  GFN2-xTB          :
         :: total energy             -51.801509390400 Eh    ::
         :: gradient norm              0.000175984964 Eh/a0 ::
         :: HOMO-LUMO gap              2.944409832531 eV    ::
         :: SCC energy               -52.203570887909 Eh    ::
         :: -> dispersion             -0.019226883569 Eh    ::
         :: repulsion energy           0.402029304250 Eh    ::

    * Orbital Energies and Occupations

         #    Occupation            Energy/Eh            Energy/eV
      -------------------------------------------------------------
         1        2.0000           -1.0307697             -28.0487
       ...           ...                  ...                  ...
        31        2.0000           -0.5338043             -14.5256
        32        2.0000           -0.5244323             -14.2705
        33        2.0000           -0.5160920             -14.0436
        34        2.0000           -0.5063106             -13.7774
        35        2.0000           -0.4992122             -13.5843
        36        2.0000           -0.4982427             -13.5579
        37        2.0000           -0.4953653             -13.4796
        38        2.0000           -0.4792478             -13.0410
        39        2.0000           -0.4573387             -12.4448
        40        2.0000           -0.4561652             -12.4129
        41        2.0000           -0.4163085             -11.3283
        42        2.0000           -0.4079367             -11.1005
        43        2.0000           -0.4075902             -11.0911 (HOMO)
        44                         -0.2993851              -8.1467 (LUMO)
        45                         -0.2963054              -8.0629
        46                         -0.1720649              -4.6821
        47                         -0.0708411              -1.9277
        48                         -0.0436672              -1.1882
        49                         -0.0232917              -0.6338
        50                          0.0031183               0.0849
        51                          0.0170724               0.4646
        52                          0.0492842               1.3411
        53                          0.0516369               1.4051
        54                          0.0521913               1.4202
       ...                                ...                  ...
        72                          0.5775401              15.7157
      -------------------------------------------------------------
                  HL-Gap            0.1082051 Eh            2.9444 eV

     #   Z          covCN         q      C6AA      α(0)
     1   7 N        2.660    -0.310    27.980     7.856
     2   6 C        3.732     0.011    20.483     6.460
     3   6 C        3.809    -0.073    21.893     6.660
     4   6 C        2.965    -0.016    28.417     8.744
     5   6 C        2.787     0.143    24.875     8.170
     6   9 F        0.788    -0.164    10.874     3.895
     7   6 C        2.774     0.136    25.010     8.191
     8   9 F        0.787    -0.155    10.783     3.879
     9   6 C        2.779     0.138    24.976     8.186
    10   9 F        0.787    -0.153    10.762     3.875
    11   6 C        2.774     0.136    25.020     8.192
    12   9 F        0.787    -0.156    10.795     3.881
    13   6 C        2.787     0.142    24.896     8.173
    14   9 F        0.787    -0.172    10.951     3.909
    15  17 Cl       0.839    -0.463   114.352    16.359
    16   1 H        0.860     0.171     1.267     1.763
    17   1 H        0.869     0.336     0.615     1.228
    18   1 H        0.860     0.171     1.269     1.764
    19   1 H        0.924     0.065     2.136     2.285
    20   1 H        0.923     0.032     2.552     2.498
    21   1 H        0.925     0.079     1.987     2.204
    22   1 H        0.924     0.104     1.753     2.070

Wiberg/Mayer (AO) data.
largest (>0.10) Wiberg bond orders for each atom

     #   Z sym  total        # sym  WBO       # sym  WBO       # sym  WBO
 ---------------------------------------------------------------------------
     1   7 N    3.205 --     2 C    1.015    18 H    0.957    16 H    0.956
                            17 H    0.174
     2   6 C    3.977 --     1 N    1.015     3 C    0.980    19 H    0.974
                            20 H    0.972
     3   6 C    3.981 --     4 C    1.018     2 C    0.980    21 H    0.968
                            22 H    0.954
     4   6 C    3.982 --    13 C    1.361     5 C    1.353     3 C    1.018
     5   6 C    3.903 --     4 C    1.353     7 C    1.343     6 F    1.001
     6   9 F    1.148 --     5 C    1.001
     7   6 C    3.906 --     5 C    1.343     9 C    1.334     8 F    1.007
     8   9 F    1.155 --     7 C    1.007
     9   6 C    3.906 --    11 C    1.338     7 C    1.334    10 F    1.009
    10   9 F    1.159 --     9 C    1.009
    11   6 C    3.905 --    13 C    1.339     9 C    1.338    12 F    1.006
    12   9 F    1.154 --    11 C    1.006
    13   6 C    3.901 --     4 C    1.361    11 C    1.339    14 F    0.995
    14   9 F    1.138 --    13 C    0.995
    15  17 Cl   0.789 --    17 H    0.709
    16   1 H    0.970 --     1 N    0.956
    17   1 H    0.887 --    15 Cl   0.709     1 N    0.174
    18   1 H    0.971 --     1 N    0.957
    19   1 H    0.996 --     2 C    0.974
    20   1 H    0.999 --     2 C    0.972
    21   1 H    0.993 --     3 C    0.968
    22   1 H    0.989 --     3 C    0.954
 ---------------------------------------------------------------------------

molecular dipole:
                 x           y           z       tot (Debye)
 q only:       -0.251      -0.420       1.683
   full:       -0.381      -0.432       1.632       4.399

           -------------------------------------------------
          | TOTAL ENERGY              -51.801509390400 Eh   |
          | GRADIENT NORM               0.000175984964 Eh/α |
          | HOMO-LUMO GAP               2.944409832531 eV   |
           -------------------------------------------------

 * finished run on 2023/01/23 at 13:50:45.021
