   * xtb version 6.5.1 (fef0646) compiled by 'conda@b96dff2e9fd6' on 2023-01-04
          program call               : xtb init.xyz --opt -c 0 -u 0 -P 16 --input xtb.inp

   ID    Z sym.   atoms
    1    7 N      1
    2    6 C      2-4
    3   17 Cl     5
    4    1 H      6-15

          :  Hamiltonian                  GFN2-xTB          :
 * total energy  :   -18.9702910 Eh     change       -0.2119549E-09 Eh
 * total energy  :   -18.9762957 Eh     change       -0.6004705E-02 Eh
 * total energy  :   -18.9804008 Eh     change       -0.4105088E-02 Eh
 * total energy  :   -18.9831786 Eh     change       -0.2777808E-02 Eh
 * total energy  :   -18.9857323 Eh     change       -0.2553695E-02 Eh
 * total energy  :   -18.9872783 Eh     change       -0.1546007E-02 Eh
 * total energy  :   -18.9875084 Eh     change       -0.2300428E-03 Eh
 * total energy  :   -18.9876816 Eh     change       -0.1732779E-03 Eh
 * total energy  :   -18.9877116 Eh     change       -0.2995284E-04 Eh
 * total energy  :   -18.9877545 Eh     change       -0.4287308E-04 Eh
 * total energy  :   -18.9877762 Eh     change       -0.2174093E-04 Eh
 * total energy  :   -18.9878042 Eh     change       -0.2794353E-04 Eh
 * total energy  :   -18.9878141 Eh     change       -0.9981130E-05 Eh
 * total energy  :   -18.9878172 Eh     change       -0.3073683E-05 Eh
   *** GEOMETRY OPTIMIZATION CONVERGED AFTER 14 ITERATIONS ***

 final structure:
================
15
 xtb: 6.5.1 (fef0646)
N            1.09971396444580       -0.31306877585764        0.22175513423100
C            2.54130800993754       -0.33130271675421        0.46820201701584
C            3.01916930381574        1.05393410660531        0.89292950690644
C            4.53397394830444        1.09869409073697        1.04441956810005
Cl           0.48881187543029        1.50650652578586       -1.99408527685265
H            0.76146412477438       -1.22758132269757       -0.05706348610407
H            0.78365016547695        0.66347489575593       -0.95088902649519
H            0.59631885448852       -0.01654024869104        1.05148365732859
H            3.02875715988337       -0.61533009596018       -0.46724663683771
H            2.81902007353044       -1.06821109547198        1.23572493640729
H            2.54800803985029        1.32277986849388        1.84137171026952
H            2.69977912552378        1.77665043182399        0.14196004063534
H            4.86930770456033        0.37466581912568        1.78436927223825
H            4.85345319841805        2.08740099389661        1.36243462689635
H            5.01680445156019        0.87015752320832        0.09752395626084

          :  Hamiltonian                  GFN2-xTB          :
         :: total energy             -18.987817209360 Eh    ::
         :: gradient norm              0.000540155129 Eh/a0 ::
         :: HOMO-LUMO gap              9.173866657355 eV    ::
         :: SCC energy               -19.182943317430 Eh    ::
         :: -> dispersion             -0.007568621455 Eh    ::
         :: repulsion energy           0.195105848738 Eh    ::

    * Orbital Energies and Occupations

         #    Occupation            Energy/Eh            Energy/eV
      -------------------------------------------------------------
         1        2.0000           -1.0160589             -27.6484
       ...           ...                  ...                  ...
         5        2.0000           -0.5798254             -15.7779
         6        2.0000           -0.5516829             -15.0121
         7        2.0000           -0.5454490             -14.8424
         8        2.0000           -0.5278906             -14.3646
         9        2.0000           -0.5039939             -13.7144
        10        2.0000           -0.4896519             -13.3241
        11        2.0000           -0.4745833             -12.9141
        12        2.0000           -0.4668455             -12.7035
        13        2.0000           -0.4504461             -12.2573
        14        2.0000           -0.4413561             -12.0099
        15        2.0000           -0.3985272             -10.8445
        16        2.0000           -0.3931674             -10.6986
        17        2.0000           -0.3931273             -10.6975 (HOMO)
        18                         -0.0559939              -1.5237 (LUMO)
        19                          0.0143575               0.3907
        20                          0.0681201               1.8536
        21                          0.0684739               1.8633
        22                          0.0740921               2.0161
        23                          0.0742447               2.0203
        24                          0.0884834               2.4078
        25                          0.1000323               2.7220
        26                          0.1233218               3.3558
        27                          0.1320926               3.5944
        28                          0.1434649               3.9039
       ...                                ...                  ...
        35                          0.2902113               7.8971
      -------------------------------------------------------------
                  HL-Gap            0.3371334 Eh            9.1739 eV

     #   Z          covCN         q      C6AA      α(0)
     1   7 N        2.696    -0.306    27.875     7.841
     2   6 C        3.732     0.007    20.558     6.472
     3   6 C        3.802    -0.067    21.792     6.646
     4   6 C        3.753    -0.107    22.605     6.780
     5  17 Cl       0.837    -0.487   115.189    16.419
     6   1 H        0.860     0.166     1.298     1.785
     7   1 H        0.902     0.332     0.623     1.235
     8   1 H        0.860     0.167     1.294     1.782
     9   1 H        0.924     0.053     2.279     2.361
    10   1 H        0.923     0.024     2.669     2.555
    11   1 H        0.924     0.036     2.499     2.472
    12   1 H        0.925     0.061     2.182     2.310
    13   1 H        0.925     0.036     2.506     2.476
    14   1 H        0.925     0.044     2.394     2.420
    15   1 H        0.925     0.041     2.431     2.438

Wiberg/Mayer (AO) data.
largest (>0.10) Wiberg bond orders for each atom

     #   Z sym  total        # sym  WBO       # sym  WBO       # sym  WBO
 ---------------------------------------------------------------------------
     1   7 N    3.240 --     2 C    1.004     6 H    0.959     8 H    0.958
                             7 H    0.208
     2   6 C    3.973 --     3 C    1.007     1 N    1.004     9 H    0.974
                            10 H    0.973
     3   6 C    3.994 --     4 C    1.019     2 C    1.007    11 H    0.977
                            12 H    0.974
     4   6 C    3.996 --     3 C    1.019    13 H    0.988    15 H    0.987
                            14 H    0.987
     5  17 Cl   0.766 --     7 H    0.678
     6   1 H    0.972 --     1 N    0.959
     7   1 H    0.890 --     5 Cl   0.678     1 N    0.208
     8   1 H    0.972 --     1 N    0.958
     9   1 H    0.997 --     2 C    0.974
    10   1 H    0.999 --     2 C    0.973
    11   1 H    0.999 --     3 C    0.977
    12   1 H    0.996 --     3 C    0.974
    13   1 H    0.999 --     4 C    0.988
    14   1 H    0.998 --     4 C    0.987
    15   1 H    0.998 --     4 C    0.987
 ---------------------------------------------------------------------------

molecular dipole:
                 x           y           z       tot (Debye)
 q only:        0.610      -1.086       1.498
   full:        0.446      -1.110       1.425       4.729

           -------------------------------------------------
          | TOTAL ENERGY              -18.987817209360 Eh   |
          | GRADIENT NORM               0.000540155129 Eh/α |
          | HOMO-LUMO GAP               9.173866657355 eV   |
           -------------------------------------------------

 * finished run on 2023/01/23 at 19:04:33.998
