   * xtb version 6.5.1 (fef0646) compiled by 'conda@b96dff2e9fd6' on 2023-01-04
          program call               : xtb init.xyz --opt -c 1 -u 0 -P 16 --alpb water

   ID    Z sym.   atoms
    1    7 N      1
    2    6 C      2, 3, 5-14
    3    8 O      4
    4    1 H      15-28

      * Solvation model:               ALPB
        Solvent                        water
        Solvent mass                       1.8000E+01 g/mol
          :  Hamiltonian                  GFN2-xTB          :
 * total energy  :   -39.4837833 Eh     change       -0.1047169E-08 Eh
 * total energy  :   -39.4879289 Eh     change       -0.4145642E-02 Eh
 * total energy  :   -39.4887718 Eh     change       -0.8429232E-03 Eh
 * total energy  :   -39.4889791 Eh     change       -0.2072808E-03 Eh
 * total energy  :   -39.4891446 Eh     change       -0.1655199E-03 Eh
 * total energy  :   -39.4892411 Eh     change       -0.9642692E-04 Eh
 * total energy  :   -39.4893189 Eh     change       -0.7786083E-04 Eh
 * total energy  :   -39.4893858 Eh     change       -0.6686433E-04 Eh
 * total energy  :   -39.4894322 Eh     change       -0.4646106E-04 Eh
 * total energy  :   -39.4894664 Eh     change       -0.3418355E-04 Eh
 * total energy  :   -39.4894885 Eh     change       -0.2208513E-04 Eh
 * total energy  :   -39.4895075 Eh     change       -0.1893386E-04 Eh
 * total energy  :   -39.4895117 Eh     change       -0.4222659E-05 Eh
 * total energy  :   -39.4895177 Eh     change       -0.6008949E-05 Eh
 * total energy  :   -39.4895194 Eh     change       -0.1714287E-05 Eh
   *** GEOMETRY OPTIMIZATION CONVERGED AFTER 15 ITERATIONS ***

 final structure:
================
28
 xtb: 6.5.1 (fef0646)
N            3.80476464436715        0.47511358522074        1.50841773782720
C            2.75496312514185        0.56672235902445        0.46846771176602
C            3.24540952464068        1.47039041891917       -0.65726196830355
O            4.43548477151255        0.86143887613688       -1.15276610872483
C            5.07738299194997        1.42022753542408       -2.21565852525473
C            4.70736887154173        2.59793683466100       -2.81486383131088
C            5.45621798787366        3.11170972641496       -3.88499351516810
C            6.56227522120950        2.45973012535974       -4.34695343205049
C            6.96558693881591        1.24044388155069       -3.76115281775048
C            8.09654733100643        0.53227258995020       -4.21783177248169
C            8.46311469886456       -0.65369041144668       -3.64445919669795
C            7.70986441345375       -1.19064063883159       -2.59043126005042
C            6.61043087800292       -0.52665603007897       -2.12131364084941
C            6.21530582568692        0.70242041952972       -2.68605118853092
H            3.57973888317391       -0.24532631595359        2.20360784042912
H            3.92866112688326        1.37560168822298        1.98681776275167
H            4.68996246847502        0.23467648172083        1.04190471094258
H            1.83379297764779        0.96650020196634        0.88895576612822
H            2.56772445405954       -0.42759428115334        0.06278981283533
H            3.46541820856954        2.47996377810711       -0.29149087070671
H            2.48860856843242        1.53642348797177       -1.44466436637070
H            3.84444077216576        3.15350774557897       -2.48636087638862
H            5.14327791203282        4.04098537896263       -4.33718234639930
H            7.14062407938288        2.86117808100063       -5.16591894630634
H            8.66832610425037        0.94671325899993       -5.03606394206102
H            9.33109227963118       -1.18644469126921       -4.00447715201017
H            8.00649048780822       -2.13379110136781       -2.15709079634921
H            6.02125445341970       -0.94676298462177       -1.32331478891474

          :  Hamiltonian                  GFN2-xTB          :
         :: total energy             -39.489519397414 Eh    ::
         :: gradient norm              0.000505594682 Eh/a0 ::
         :: HOMO-LUMO gap              3.116733064377 eV    ::
         :: SCC energy               -40.132807423835 Eh    ::
         :: -> dispersion             -0.024489236315 Eh    ::
         :: -> Gsolv                  -0.123559732985 Eh    ::
         :: repulsion energy           0.643222768739 Eh    ::

    * Orbital Energies and Occupations

         #    Occupation            Energy/Eh            Energy/eV
      -------------------------------------------------------------
         1        2.0000           -0.7285165             -19.8239
       ...           ...                  ...                  ...
        24        2.0000           -0.4850243             -13.1982
        25        2.0000           -0.4808639             -13.0850
        26        2.0000           -0.4793916             -13.0449
        27        2.0000           -0.4693050             -12.7704
        28        2.0000           -0.4636595             -12.6168
        29        2.0000           -0.4557059             -12.4004
        30        2.0000           -0.4464865             -12.1495
        31        2.0000           -0.4453551             -12.1187
        32        2.0000           -0.4191827             -11.4065
        33        2.0000           -0.4157683             -11.3136
        34        2.0000           -0.4129594             -11.2372
        35        2.0000           -0.4010187             -10.9123
        36        2.0000           -0.3694983             -10.0546 (HOMO)
        37                         -0.2549604              -6.9378 (LUMO)
        38                         -0.2290278              -6.2322
        39                         -0.1861295              -5.0648
        40                         -0.1428129              -3.8861
        41                         -0.0563606              -1.5336
        42                         -0.0541494              -1.4735
        43                          0.0051738               0.1408
        44                          0.0537297               1.4621
        45                          0.0671468               1.8272
        46                          0.1058975               2.8816
        47                          0.1120785               3.0498
       ...                                ...                  ...
        70                          0.6966388              18.9565
      -------------------------------------------------------------
                  HL-Gap            0.1145378 Eh            3.1167 eV

     #   Z          covCN         q      C6AA      α(0)
     1   7 N        3.486    -0.154    24.323     7.325
     2   6 C        3.731    -0.045    21.472     6.614
     3   6 C        3.690     0.050    19.924     6.388
     4   8 O        1.704    -0.275    18.554     5.816
     5   6 C        2.858     0.129    25.177     8.224
     6   6 C        2.913    -0.081    30.021     8.985
     7   6 C        2.917    -0.038    28.957     8.824
     8   6 C        2.916    -0.052    29.298     8.876
     9   6 C        2.987     0.008    27.831     8.654
    10   6 C        2.920    -0.039    28.975     8.827
    11   6 C        2.916    -0.034    28.857     8.809
    12   6 C        2.916    -0.038    28.949     8.823
    13   6 C        2.918    -0.040    29.003     8.831
    14   6 C        2.987    -0.009    28.236     8.716
    15   1 H        0.859     0.324     0.647     1.260
    16   1 H        0.859     0.314     0.674     1.286
    17   1 H        0.859     0.306     0.695     1.306
    18   1 H        0.925     0.131     1.530     1.934
    19   1 H        0.925     0.131     1.525     1.931
    20   1 H        0.924     0.077     2.012     2.218
    21   1 H        0.924     0.074     2.040     2.234
    22   1 H        0.926     0.050     2.319     2.381
    23   1 H        0.926     0.032     2.564     2.504
    24   1 H        0.926     0.024     2.681     2.560
    25   1 H        0.926     0.025     2.660     2.550
    26   1 H        0.926     0.027     2.634     2.538
    27   1 H        0.926     0.040     2.454     2.450
    28   1 H        0.926     0.067     2.118     2.276

Wiberg/Mayer (AO) data.
largest (>0.10) Wiberg bond orders for each atom

     #   Z sym  total        # sym  WBO       # sym  WBO       # sym  WBO
 ---------------------------------------------------------------------------
     1   7 N    3.654 --     2 C    0.976    17 H    0.887    16 H    0.887
                            15 H    0.883
     2   6 C    3.928 --     3 C    1.008     1 N    0.976    18 H    0.961
                            19 H    0.960
     3   6 C    3.933 --     2 C    1.008    21 H    0.962    20 H    0.962
                             4 O    0.955
     4   8 O    2.224 --     5 C    1.065     3 C    0.955
     5   6 C    3.946 --     6 C    1.482    14 C    1.209     4 O    1.065
                             8 C    0.101
     6   6 C    3.986 --     5 C    1.482     7 C    1.319    22 H    0.964
     7   6 C    3.992 --     8 C    1.560     6 C    1.319    23 H    0.971
     8   6 C    3.992 --     7 C    1.560     9 C    1.269    24 H    0.969
                             5 C    0.101
     9   6 C    3.990 --    10 C    1.283     8 C    1.269    14 C    1.262
    10   6 C    3.992 --    11 C    1.553     9 C    1.283    25 H    0.969
                            13 C    0.118
    11   6 C    3.992 --    10 C    1.553    12 C    1.327    26 H    0.971
    12   6 C    3.991 --    13 C    1.547    11 C    1.327    27 H    0.970
    13   6 C    3.989 --    12 C    1.547    14 C    1.295    28 H    0.964
                            10 C    0.118
    14   6 C    3.988 --    13 C    1.295     9 C    1.262     5 C    1.209
    15   1 H    0.895 --     1 N    0.883
    16   1 H    0.902 --     1 N    0.887
    17   1 H    0.906 --     1 N    0.887
    18   1 H    0.982 --     2 C    0.961
    19   1 H    0.983 --     2 C    0.960
    20   1 H    0.994 --     3 C    0.962
    21   1 H    0.994 --     3 C    0.962
    22   1 H    0.997 --     6 C    0.964
    23   1 H    0.999 --     7 C    0.971
    24   1 H    0.999 --     8 C    0.969
    25   1 H    0.999 --    10 C    0.969
    26   1 H    0.999 --    11 C    0.971
    27   1 H    0.998 --    12 C    0.970
    28   1 H    0.995 --    13 C    0.964
 ---------------------------------------------------------------------------

molecular dipole:
                 x           y           z       tot (Debye)
 q only:        6.324       1.001       3.175
   full:        6.542       1.183       2.909      18.444

           -------------------------------------------------
          | TOTAL ENERGY              -39.489519397414 Eh   |
          | GRADIENT NORM               0.000505594682 Eh/α |
          | HOMO-LUMO GAP               3.116733064377 eV   |
           -------------------------------------------------

 * finished run on 2023/01/24 at 16:51:14.979
