   * xtb version 6.5.1 (fef0646) compiled by 'conda@b96dff2e9fd6' on 2023-01-04
          program call               : xtb init.xyz --opt -c 1 -u 0 -P 16 --alpb water

   ID    Z sym.   atoms
    1    7 N      1
    2    6 C      2-9
    3    1 H      10-21

      * Solvation model:               ALPB
        Solvent                        water
        Solvent mass                       1.8000E+01 g/mol
          :  Hamiltonian                  GFN2-xTB          :
 * total energy  :   -25.8280144 Eh     change       -0.2457448E-09 Eh
 * total energy  :   -25.8298828 Eh     change       -0.1868337E-02 Eh
 * total energy  :   -25.8300794 Eh     change       -0.1966868E-03 Eh
 * total energy  :   -25.8301155 Eh     change       -0.3601722E-04 Eh
 * total energy  :   -25.8301592 Eh     change       -0.4373622E-04 Eh
 * total energy  :   -25.8301824 Eh     change       -0.2324108E-04 Eh
 * total energy  :   -25.8302204 Eh     change       -0.3794284E-04 Eh
 * total energy  :   -25.8302583 Eh     change       -0.3786806E-04 Eh
 * total energy  :   -25.8302789 Eh     change       -0.2068414E-04 Eh
 * total energy  :   -25.8303013 Eh     change       -0.2239678E-04 Eh
 * total energy  :   -25.8312177 Eh     change       -0.1114581E-04 Eh
 * total energy  :   -25.8312278 Eh     change       -0.1004996E-04 Eh
 * total energy  :   -25.8312366 Eh     change       -0.8806881E-05 Eh
 * total energy  :   -25.8312445 Eh     change       -0.7930570E-05 Eh
 * total energy  :   -25.8312519 Eh     change       -0.7320336E-05 Eh
 * total energy  :   -25.8312587 Eh     change       -0.6873677E-05 Eh
 * total energy  :   -25.8312652 Eh     change       -0.6515648E-05 Eh
 * total energy  :   -25.8312711 Eh     change       -0.5861356E-05 Eh
 * total energy  :   -25.8312737 Eh     change       -0.2597298E-05 Eh
   *** GEOMETRY OPTIMIZATION CONVERGED AFTER 44 ITERATIONS ***

 final structure:
================
21
 xtb: 6.5.1 (fef0646)
N            2.70135659085395        0.17210736772814        1.54953078706206
C            2.43546854236302        0.04605665183377        0.08313193636640
C            0.94834921873740        0.26130114988850       -0.16932883846146
C            2.90483320698510       -1.30546451858051       -0.40411692336457
C            3.89717025893111       -1.39048435911421       -1.37175684999841
C            4.32906608884129       -2.62423845528724       -1.82759647520686
C            3.77456434841624       -3.78573673241562       -1.31691888853528
C            2.78293178242343       -3.70885766928479       -0.35269656786295
C            2.34998117653367       -2.47628290991865        0.10165456052994
H            3.70455722726591        0.08488586578478        1.74908994062428
H            2.20396862514617       -0.56945544540884        2.05713411530515
H            2.36901174541814        1.08067421900450        1.89436247472161
H            3.00533825749327        0.82344275295500       -0.43143552315854
H            0.34664283317042       -0.47331320875667        0.35705667031602
H            0.73873515736642        0.15920420203363       -1.22971554389581
H            0.64274178085231        1.25785592708568        0.13621325637809
H            4.33477955950005       -0.49207346741525       -1.78018550284610
H            5.09993203746476       -2.68114115533955       -2.58131569697729
H            4.11179150121121       -4.74809727885394       -1.67186559986044
H            2.34642558647083       -4.61384810906338        0.04203370820593
H            1.56431447455538       -2.44640482687524        0.84076496065844

          :  Hamiltonian                  GFN2-xTB          :
         :: total energy             -25.831273699505 Eh    ::
         :: gradient norm              0.000175978496 Eh/a0 ::
         :: HOMO-LUMO gap              4.753839345394 eV    ::
         :: SCC energy               -26.284632711856 Eh    ::
         :: -> dispersion             -0.015121151367 Eh    ::
         :: -> Gsolv                  -0.112682008956 Eh    ::
         :: repulsion energy           0.453271307109 Eh    ::

    * Orbital Energies and Occupations

         #    Occupation            Energy/Eh            Energy/eV
      -------------------------------------------------------------
         1        2.0000           -0.6968387             -18.9619
       ...           ...                  ...                  ...
        12        2.0000           -0.5270440             -14.3416
        13        2.0000           -0.5115638             -13.9204
        14        2.0000           -0.4991708             -13.5831
        15        2.0000           -0.4907801             -13.3548
        16        2.0000           -0.4851260             -13.2010
        17        2.0000           -0.4812519             -13.0955
        18        2.0000           -0.4747914             -12.9197
        19        2.0000           -0.4685043             -12.7487
        20        2.0000           -0.4545564             -12.3691
        21        2.0000           -0.4302865             -11.7087
        22        2.0000           -0.4255923             -11.5810
        23        2.0000           -0.4103252             -11.1655
        24        2.0000           -0.4091646             -11.1339 (HOMO)
        25                         -0.2344642              -6.3801 (LUMO)
        26                         -0.2287856              -6.2256
        27                         -0.1058316              -2.8798
        28                         -0.0433204              -1.1788
        29                          0.0487408               1.3263
        30                          0.0639472               1.7401
        31                          0.0973211               2.6482
        32                          0.1056911               2.8760
        33                          0.1196676               3.2563
        34                          0.1505793               4.0975
        35                          0.1718713               4.6769
       ...                                ...                  ...
        48                          0.6575198              17.8920
      -------------------------------------------------------------
                  HL-Gap            0.1747004 Eh            4.7538 eV

     #   Z          covCN         q      C6AA      α(0)
     1   7 N        3.486    -0.169    24.645     7.373
     2   6 C        3.786     0.027    20.138     6.392
     3   6 C        3.756    -0.149    23.442     6.904
     4   6 C        2.972     0.003    27.951     8.672
     5   6 C        2.924    -0.042    29.055     8.839
     6   6 C        2.919    -0.031    28.783     8.798
     7   6 C        2.920    -0.031    28.780     8.797
     8   6 C        2.919    -0.033    28.824     8.804
     9   6 C        2.923    -0.043    29.080     8.843
    10   1 H        0.859     0.310     0.685     1.297
    11   1 H        0.859     0.302     0.707     1.317
    12   1 H        0.859     0.316     0.669     1.281
    13   1 H        0.924     0.105     1.744     2.065
    14   1 H        0.925     0.077     2.014     2.220
    15   1 H        0.925     0.070     2.086     2.258
    16   1 H        0.925     0.079     1.991     2.207
    17   1 H        0.926     0.053     2.287     2.365
    18   1 H        0.926     0.032     2.558     2.501
    19   1 H        0.926     0.026     2.641     2.541
    20   1 H        0.926     0.037     2.491     2.468
    21   1 H        0.926     0.065     2.144     2.290

Wiberg/Mayer (AO) data.
largest (>0.10) Wiberg bond orders for each atom

     #   Z sym  total        # sym  WBO       # sym  WBO       # sym  WBO
 ---------------------------------------------------------------------------
     1   7 N    3.650 --     2 C    0.940    10 H    0.890    11 H    0.889
                            12 H    0.885
     2   6 C    3.936 --     3 C    1.005     4 C    0.995    13 H    0.957
                             1 N    0.940
     3   6 C    3.981 --     2 C    1.005    16 H    0.978    14 H    0.978
                            15 H    0.978
     4   6 C    3.987 --     5 C    1.417     9 C    1.410     2 C    0.995
                             7 C    0.109
     5   6 C    3.990 --     6 C    1.440     4 C    1.417    17 H    0.967
                             8 C    0.111
     6   6 C    3.992 --     7 C    1.442     5 C    1.440    18 H    0.971
                             9 C    0.112
     7   6 C    3.992 --     6 C    1.442     8 C    1.436    19 H    0.972
                             4 C    0.109
     8   6 C    3.992 --     9 C    1.447     7 C    1.436    20 H    0.971
                             5 C    0.111
     9   6 C    3.989 --     8 C    1.447     4 C    1.410    21 H    0.962
                             6 C    0.112
    10   1 H    0.904 --     1 N    0.890
    11   1 H    0.909 --     1 N    0.889
    12   1 H    0.900 --     1 N    0.885
    13   1 H    0.989 --     2 C    0.957
    14   1 H    0.994 --     3 C    0.978
    15   1 H    0.995 --     3 C    0.978
    16   1 H    0.993 --     3 C    0.978
    17   1 H    0.997 --     5 C    0.967
    18   1 H    0.999 --     6 C    0.971
    19   1 H    0.999 --     7 C    0.972
    20   1 H    0.998 --     8 C    0.971
    21   1 H    0.996 --     9 C    0.962
 ---------------------------------------------------------------------------

molecular dipole:
                 x           y           z       tot (Debye)
 q only:        4.827       0.397       2.707
   full:        4.933       0.232       2.687      14.291

           -------------------------------------------------
          | TOTAL ENERGY              -25.831273699505 Eh   |
          | GRADIENT NORM               0.000175978496 Eh/α |
          | HOMO-LUMO GAP               4.753839345394 eV   |
           -------------------------------------------------

 * finished run on 2023/01/24 at 14:58:19.862
