   * xtb version 6.5.1 (fef0646) compiled by 'conda@b96dff2e9fd6' on 2023-01-04
          program call               : xtb init.xyz --opt -c 1 -u 0 -P 16 --input xtb.inp

   ID    Z sym.   atoms
    1    7 N      1
    2    6 C      2-5
    3    1 H      6-13

          :  Hamiltonian                  GFN2-xTB          :
 * total energy  :   -15.0254484 Eh     change       -0.5599077E-11 Eh
 * total energy  :   -15.0481558 Eh     change       -0.2270736E-01 Eh
 * total energy  :   -15.0494084 Eh     change       -0.1252660E-02 Eh
 * total energy  :   -15.0494997 Eh     change       -0.9126365E-04 Eh
 * total energy  :   -15.0497175 Eh     change       -0.2177831E-03 Eh
 * total energy  :   -15.0499040 Eh     change       -0.1864843E-03 Eh
 * total energy  :   -15.0501220 Eh     change       -0.2180589E-03 Eh
 * total energy  :   -15.0502661 Eh     change       -0.1440367E-03 Eh
 * total energy  :   -15.0504030 Eh     change       -0.1368880E-03 Eh
 * total energy  :   -15.0504931 Eh     change       -0.9014069E-04 Eh
 * total energy  :   -15.0505111 Eh     change       -0.1804786E-04 Eh
 * total energy  :   -15.0505293 Eh     change       -0.1816566E-04 Eh
 * total energy  :   -15.0505347 Eh     change       -0.5395256E-05 Eh
 * total energy  :   -15.0505366 Eh     change       -0.1895891E-05 Eh
   *** GEOMETRY OPTIMIZATION CONVERGED AFTER 14 ITERATIONS ***

 final structure:
================
13
 xtb: 6.5.1 (fef0646)
N            0.99798745679401        0.18022622647426        0.09384519940499
C            2.48066286136767        0.01258753702305        0.03412437269042
C            3.02047240435968        0.98435839160189       -1.01710954605825
C            2.46226136104769        2.30485327077726       -0.77747566311959
C            1.90745980293077        3.33746825137301       -0.52901772834214
H            0.58518623767391       -0.23638730744216        0.93546215540938
H            0.54657259479804       -0.22471894709045       -0.73565477351434
H            0.84147011762030        1.21299623229384        0.07792612118848
H            2.73254909222683       -1.01930878934592       -0.20884679423890
H            2.89019365369360        0.26010365677469        1.01486917581734
H            2.75911463028454        0.65788896880593       -2.02682414794495
H            4.10845179635994        1.03104519494752       -0.95391902184780
H            1.49913799084220        4.28878731380638       -0.35062934944493

          :  Hamiltonian                  GFN2-xTB          :
         :: total energy             -15.050536596219 Eh    ::
         :: gradient norm              0.000736094653 Eh/a0 ::
         :: HOMO-LUMO gap              6.746936317478 eV    ::
         :: SCC energy               -15.343667991594 Eh    ::
         :: -> dispersion             -0.005667693287 Eh    ::
         :: repulsion energy           0.293121867518 Eh    ::

    * Orbital Energies and Occupations

         #    Occupation            Energy/Eh            Energy/eV
      -------------------------------------------------------------
         1        2.0000           -0.8977138             -24.4280
         2        2.0000           -0.8458578             -23.0170
         3        2.0000           -0.8112954             -22.0765
         4        2.0000           -0.8018546             -21.8196
         5        2.0000           -0.7815657             -21.2675
         6        2.0000           -0.7664892             -20.8572
         7        2.0000           -0.7403812             -20.1468
         8        2.0000           -0.6992850             -19.0285
         9        2.0000           -0.6743697             -18.3505
        10        2.0000           -0.6659734             -18.1221
        11        2.0000           -0.6444830             -17.5373
        12        2.0000           -0.6244746             -16.9928
        13        2.0000           -0.5772951             -15.7090
        14        2.0000           -0.5682502             -15.4629 (HOMO)
        15                         -0.3203049              -8.7159 (LUMO)
        16                         -0.3083284              -8.3900
        17                         -0.2591129              -7.0508
        18                         -0.1630466              -4.4367
        19                         -0.1073697              -2.9217
        20                         -0.0936210              -2.5476
        21                         -0.0850696              -2.3149
        22                         -0.0512598              -1.3949
        23                         -0.0053369              -0.1452
        24                          0.0109128               0.2970
        25                          0.0586745               1.5966
       ...                                ...                  ...
        28                          1.2570426              34.2059
      -------------------------------------------------------------
                  HL-Gap            0.2479453 Eh            6.7469 eV

     #   Z          covCN         q      C6AA      α(0)
     1   7 N        3.483    -0.135    23.916     7.263
     2   6 C        3.739    -0.028    21.155     6.563
     3   6 C        3.806    -0.067    21.784     6.644
     4   6 C        1.971    -0.034    31.963     9.130
     5   6 C        1.909    -0.093    33.655     9.369
     6   1 H        0.859     0.267     0.819     1.418
     7   1 H        0.859     0.269     0.814     1.413
     8   1 H        0.858     0.281     0.774     1.379
     9   1 H        0.925     0.108     1.715     2.048
    10   1 H        0.924     0.110     1.697     2.037
    11   1 H        0.924     0.090     1.879     2.144
    12   1 H        0.924     0.114     1.661     2.015
    13   1 H        0.928     0.118     1.631     1.997

Wiberg/Mayer (AO) data.
largest (>0.10) Wiberg bond orders for each atom

     #   Z sym  total        # sym  WBO       # sym  WBO       # sym  WBO
 ---------------------------------------------------------------------------
     1   7 N    3.671 --     2 C    0.934     6 H    0.915     7 H    0.913
                             8 H    0.868
     2   6 C    3.897 --     3 C    0.992     9 H    0.968    10 H    0.968
                             1 N    0.934
     3   6 C    3.981 --     4 C    1.047     2 C    0.992    11 H    0.951
                            12 H    0.941
     4   6 C    3.979 --     5 C    2.875     3 C    1.047
     5   6 C    3.966 --     4 C    2.875    13 H    0.962
     6   1 H    0.928 --     1 N    0.915
     7   1 H    0.928 --     1 N    0.913
     8   1 H    0.921 --     1 N    0.868
     9   1 H    0.988 --     2 C    0.968
    10   1 H    0.988 --     2 C    0.968
    11   1 H    0.992 --     3 C    0.951
    12   1 H    0.987 --     3 C    0.941
    13   1 H    0.986 --     5 C    0.962
 ---------------------------------------------------------------------------

molecular dipole:
                 x           y           z       tot (Debye)
 q only:        2.606       0.642      -0.074
   full:        2.405       0.608      -0.039       6.307

           -------------------------------------------------
          | TOTAL ENERGY              -15.050536596219 Eh   |
          | GRADIENT NORM               0.000736094653 Eh/α |
          | HOMO-LUMO GAP               6.746936317478 eV   |
           -------------------------------------------------

 * finished run on 2023/01/23 at 18:59:45.051
