   * xtb version 6.5.1 (fef0646) compiled by 'conda@b96dff2e9fd6' on 2023-01-04
          program call               : xtb init.xyz --opt -c 0 -u 0 -P 16

   ID    Z sym.   atoms
    1    7 N      1
    2    6 C      2, 3, 5
    3   16 S      4
    4   17 Cl     6
    5    1 H      7-16

          :  Hamiltonian                  GFN2-xTB          :
 * total energy  :   -22.2038466 Eh     change       -0.4401457E-10 Eh
 * total energy  :   -22.2102274 Eh     change       -0.6380831E-02 Eh
 * total energy  :   -22.2146442 Eh     change       -0.4416711E-02 Eh
 * total energy  :   -22.2177462 Eh     change       -0.3102018E-02 Eh
 * total energy  :   -22.2206953 Eh     change       -0.2949172E-02 Eh
 * total energy  :   -22.2224723 Eh     change       -0.1776950E-02 Eh
 * total energy  :   -22.2227210 Eh     change       -0.2487045E-03 Eh
 * total energy  :   -22.2228358 Eh     change       -0.1148144E-03 Eh
 * total energy  :   -22.2228862 Eh     change       -0.5042609E-04 Eh
 * total energy  :   -22.2229200 Eh     change       -0.3379920E-04 Eh
 * total energy  :   -22.2229439 Eh     change       -0.2388786E-04 Eh
 * total energy  :   -22.2229693 Eh     change       -0.2539593E-04 Eh
 * total energy  :   -22.2230126 Eh     change       -0.4329043E-04 Eh
 * total energy  :   -22.2230285 Eh     change       -0.1590285E-04 Eh
 * total energy  :   -22.2230383 Eh     change       -0.9753301E-05 Eh
 * total energy  :   -22.2230459 Eh     change       -0.7622152E-05 Eh
 * total energy  :   -22.2230532 Eh     change       -0.7347230E-05 Eh
 * total energy  :   -22.2230598 Eh     change       -0.6583727E-05 Eh
 * total energy  :   -22.2230633 Eh     change       -0.3432265E-05 Eh
   *** GEOMETRY OPTIMIZATION CONVERGED AFTER 19 ITERATIONS ***

 final structure:
================
16
 xtb: 6.5.1 (fef0646)
N            1.01055904439544       -0.16581743625612       -0.05866065005791
C            2.46126865407503       -0.26871656401626       -0.11297536140627
C            2.97239537634699       -1.56442657933796       -0.73667437738074
S            2.37589560975889       -1.71956451750402       -2.46492314022534
C            3.32457987071651       -3.18301581593831       -2.94907856672162
Cl           0.24288207197118        2.29094956450719        1.37427801540685
H            0.58780746699983        1.16573265218780        0.69731832857469
H            0.61154843981104       -0.94745256268683        0.45275357184051
H            0.62438219324001       -0.16991157544076       -0.99784296120875
H            2.84539079945468       -0.19036219048434        0.90790204925056
H            2.83175459726976        0.58247006564623       -0.68783650312226
H            2.61391191171196       -2.43437924019267       -0.18157387762221
H            4.06213966259563       -1.57180566107124       -0.76059439489708
H            3.05132272994948       -3.40656460860565       -3.97499139245896
H            3.06368067211773       -4.01754002698845       -2.30363140982706
H            4.38727089958521       -2.96449550381825       -2.88539933014400

          :  Hamiltonian                  GFN2-xTB          :
         :: total energy             -22.223063253482 Eh    ::
         :: gradient norm              0.000689301596 Eh/a0 ::
         :: HOMO-LUMO gap              4.204078594714 eV    ::
         :: SCC energy               -22.420015141358 Eh    ::
         :: -> dispersion             -0.009609525559 Eh    ::
         :: repulsion energy           0.196981041871 Eh    ::

    * Orbital Energies and Occupations

         #    Occupation            Energy/Eh            Energy/eV
      -------------------------------------------------------------
         1        2.0000           -1.0183337             -27.7103
       ...           ...                  ...                  ...
         8        2.0000           -0.5439377             -14.8013
         9        2.0000           -0.5389712             -14.6662
        10        2.0000           -0.5211072             -14.1800
        11        2.0000           -0.5154799             -14.0269
        12        2.0000           -0.5013147             -13.6415
        13        2.0000           -0.4984562             -13.5637
        14        2.0000           -0.4789936             -13.0341
        15        2.0000           -0.4755008             -12.9390
        16        2.0000           -0.4538491             -12.3499
        17        2.0000           -0.4048310             -11.0160
        18        2.0000           -0.3953809             -10.7589
        19        2.0000           -0.3953129             -10.7570
        20        2.0000           -0.3713466             -10.1049 (HOMO)
        21                         -0.2168496              -5.9008 (LUMO)
        22                         -0.1527631              -4.1569
        23                         -0.0575497              -1.5660
        24                         -0.0227367              -0.6187
        25                         -0.0121154              -0.3297
        26                          0.0063837               0.1737
        27                          0.0300548               0.8178
        28                          0.0649392               1.7671
        29                          0.0649734               1.7680
        30                          0.0710031               1.9321
        31                          0.0710070               1.9322
       ...                                ...                  ...
        44                          0.4082876              11.1101
      -------------------------------------------------------------
                  HL-Gap            0.1544970 Eh            4.2041 eV

     #   Z          covCN         q      C6AA      α(0)
     1   7 N        2.670    -0.306    27.881     7.842
     2   6 C        3.764     0.003    20.574     6.465
     3   6 C        3.792    -0.016    20.877     6.507
     4  16 S        1.972    -0.215   150.245    20.630
     5   6 C        3.745    -0.047    21.487     6.612
     6  17 Cl       0.839    -0.469   114.551    16.373
     7   1 H        0.880     0.332     0.625     1.237
     8   1 H        0.860     0.169     1.281     1.773
     9   1 H        0.860     0.180     1.216     1.728
    10   1 H        0.924     0.059     2.211     2.326
    11   1 H        0.924     0.066     2.127     2.281
    12   1 H        0.924     0.041     2.432     2.439
    13   1 H        0.925     0.047     2.362     2.404
    14   1 H        0.925     0.062     2.181     2.310
    15   1 H        0.925     0.048     2.344     2.394
    16   1 H        0.925     0.048     2.340     2.392

Wiberg/Mayer (AO) data.
largest (>0.10) Wiberg bond orders for each atom

     #   Z sym  total        # sym  WBO       # sym  WBO       # sym  WBO
 ---------------------------------------------------------------------------
     1   7 N    3.227 --     2 C    1.019     8 H    0.957     9 H    0.951
                             7 H    0.184
     2   6 C    3.978 --     1 N    1.019     3 C    1.005    11 H    0.972
                            10 H    0.967
     3   6 C    3.983 --     2 C    1.005     4 S    0.985    12 H    0.976
                            13 H    0.974
     4  16 S    2.075 --     5 C    1.012     3 C    0.985
     5   6 C    3.980 --     4 S    1.012    15 H    0.985    16 H    0.985
                            14 H    0.981
     6  17 Cl   0.782 --     7 H    0.703
     7   1 H    0.890 --     6 Cl   0.703     1 N    0.184
     8   1 H    0.972 --     1 N    0.957
     9   1 H    0.968 --     1 N    0.951
    10   1 H    0.996 --     2 C    0.967
    11   1 H    0.996 --     2 C    0.972
    12   1 H    0.998 --     3 C    0.976
    13   1 H    0.997 --     3 C    0.974
    14   1 H    0.996 --     5 C    0.981
    15   1 H    0.998 --     5 C    0.985
    16   1 H    0.998 --     5 C    0.985
 ---------------------------------------------------------------------------

molecular dipole:
                 x           y           z       tot (Debye)
 q only:        0.902      -1.842      -0.655
   full:        1.135      -2.112      -0.503       6.228

           -------------------------------------------------
          | TOTAL ENERGY              -22.223063253482 Eh   |
          | GRADIENT NORM               0.000689301596 Eh/α |
          | HOMO-LUMO GAP               4.204078594714 eV   |
           -------------------------------------------------

 * finished run on 2023/01/23 at 14:27:55.749
