   * xtb version 6.5.1 (fef0646) compiled by 'conda@b96dff2e9fd6' on 2023-01-04
          program call               : xtb init.xyz --opt -c 1 -u 0 -P 16 --alpb water

   ID    Z sym.   atoms
    1    7 N      1
    2    6 C      2-9
    3    1 H      10-29

      * Solvation model:               ALPB
        Solvent                        water
        Solvent mass                       1.8000E+01 g/mol
          :  Hamiltonian                  GFN2-xTB          :
 * total energy  :   -29.9360898 Eh     change       -0.7101875E-10 Eh
 * total energy  :   -29.9375097 Eh     change       -0.1419894E-02 Eh
 * total energy  :   -29.9376240 Eh     change       -0.1142987E-03 Eh
 * total energy  :   -29.9376399 Eh     change       -0.1583751E-04 Eh
 * total energy  :   -29.9376419 Eh     change       -0.2049360E-05 Eh
   *** GEOMETRY OPTIMIZATION CONVERGED AFTER 5 ITERATIONS ***

 final structure:
================
29
 xtb: 6.5.1 (fef0646)
N            1.01579480045528        0.00705167912112       -0.06256787978229
C            2.49932896194200        0.01260731154735       -0.05823522867422
C            3.02831905952789        0.90827782186486        1.05628195456900
C            4.55654015429616        0.91995130800381        1.07304743767831
C            5.09706815698777        1.81439695550492        2.18722444721715
C            6.62355814699554        1.83639963824072        2.21429893097293
C            7.16051502542959        2.73125216340789        3.32907048584421
C            8.68693567207883        2.75743174342652        3.36223119398478
C            9.21467327984807        3.65315175338638        4.47707936644367
H            0.65481470384079       -0.59595028648823       -0.81031999322139
H            0.66105656956043        0.96002850085876       -0.20550250182689
H            0.66214781565431       -0.33605022310100        0.83849206949114
H            2.85896592163264        0.37330051597200       -1.02170241855183
H            2.86125020680664       -1.00526247996068        0.08565482974990
H            2.67552956837430        0.55349903378938        2.02553448806806
H            2.67673686515378        1.93152361005419        0.91770670956140
H            4.93605506474589        1.27985233010111        0.11494627933247
H            4.93433855629945       -0.09377071854752        1.21864710684832
H            4.73202731689225        1.45946395557249        3.15361664817280
H            4.73177436134357        2.83461024394921        2.04980212497961
H            7.00213345198932        2.19626707050741        1.25455484871867
H            7.00245356079827        0.82161788088298        2.35780635194714
H            6.78951972173757        2.37481491053139        4.29314025162606
H            6.78992480395892        3.74969519080774        3.18924781401523
H            9.06457301489047        3.11659029097195        2.40197835777271
H            9.06414507445779        1.74223066188431        3.50633357468634
H            8.86911399792048        4.67587660552078        4.34188352076408
H           10.30218211558227        3.65773074430881        4.48322640997622
H            8.86869405079973        3.30117178788132        5.44664281963641

          :  Hamiltonian                  GFN2-xTB          :
         :: total energy             -29.937641925911 Eh    ::
         :: gradient norm              0.000454851527 Eh/a0 ::
         :: HOMO-LUMO gap              9.927037651838 eV    ::
         :: SCC energy               -30.376290449570 Eh    ::
         :: -> dispersion             -0.015947212188 Eh    ::
         :: -> Gsolv                  -0.118141914087 Eh    ::
         :: repulsion energy           0.438790110318 Eh    ::

    * Orbital Energies and Occupations

         #    Occupation            Energy/Eh            Energy/eV
      -------------------------------------------------------------
         1        2.0000           -0.6924059             -18.8413
       ...           ...                  ...                  ...
        16        2.0000           -0.4942222             -13.4485
        17        2.0000           -0.4935467             -13.4301
        18        2.0000           -0.4755266             -12.9397
        19        2.0000           -0.4707286             -12.8092
        20        2.0000           -0.4640284             -12.6269
        21        2.0000           -0.4539482             -12.3526
        22        2.0000           -0.4491068             -12.2208
        23        2.0000           -0.4388817             -11.9426
        24        2.0000           -0.4322581             -11.7623
        25        2.0000           -0.4282345             -11.6529
        26        2.0000           -0.4211240             -11.4594
        27        2.0000           -0.4201206             -11.4321
        28        2.0000           -0.4164897             -11.3333 (HOMO)
        29                         -0.0516778              -1.4062 (LUMO)
        30                          0.0387377               1.0541
        31                          0.0659112               1.7935
        32                          0.0918557               2.4995
        33                          0.0961717               2.6170
        34                          0.1100827               2.9955
        35                          0.1174464               3.1959
        36                          0.1212926               3.3005
        37                          0.1342438               3.6530
        38                          0.1446474               3.9361
        39                          0.1506096               4.0983
       ...                                ...                  ...
        56                          0.3226484               8.7797
      -------------------------------------------------------------
                  HL-Gap            0.3648119 Eh            9.9270 eV

     #   Z          covCN         q      C6AA      α(0)
     1   7 N        3.485    -0.162    24.492     7.350
     2   6 C        3.732    -0.038    21.345     6.594
     3   6 C        3.803    -0.086    22.137     6.698
     4   6 C        3.804    -0.071    21.850     6.655
     5   6 C        3.803    -0.067    21.783     6.645
     6   6 C        3.803    -0.065    21.737     6.638
     7   6 C        3.803    -0.064    21.725     6.636
     8   6 C        3.801    -0.058    21.615     6.619
     9   6 C        3.752    -0.110    22.658     6.788
    10   1 H        0.859     0.316     0.667     1.280
    11   1 H        0.859     0.309     0.688     1.299
    12   1 H        0.859     0.309     0.688     1.300
    13   1 H        0.925     0.107     1.722     2.052
    14   1 H        0.925     0.107     1.723     2.053
    15   1 H        0.924     0.066     2.126     2.280
    16   1 H        0.924     0.066     2.127     2.280
    17   1 H        0.924     0.043     2.410     2.428
    18   1 H        0.924     0.043     2.410     2.428
    19   1 H        0.924     0.037     2.495     2.470
    20   1 H        0.924     0.037     2.495     2.470
    21   1 H        0.924     0.030     2.581     2.512
    22   1 H        0.924     0.030     2.581     2.512
    23   1 H        0.924     0.031     2.573     2.509
    24   1 H        0.924     0.031     2.574     2.509
    25   1 H        0.924     0.029     2.604     2.524
    26   1 H        0.924     0.029     2.605     2.524
    27   1 H        0.925     0.035     2.522     2.484
    28   1 H        0.925     0.031     2.568     2.506
    29   1 H        0.925     0.035     2.522     2.483

Wiberg/Mayer (AO) data.
largest (>0.10) Wiberg bond orders for each atom

     #   Z sym  total        # sym  WBO       # sym  WBO       # sym  WBO
 ---------------------------------------------------------------------------
     1   7 N    3.653 --     2 C    0.966    12 H    0.890    11 H    0.890
                            10 H    0.887
     2   6 C    3.927 --     3 C    1.011    14 H    0.966    13 H    0.966
                             1 N    0.966
     3   6 C    3.990 --     2 C    1.011     4 C    1.004    16 H    0.973
                            15 H    0.973
     4   6 C    3.995 --     5 C    1.007     3 C    1.004    17 H    0.977
                            18 H    0.977
     5   6 C    3.996 --     4 C    1.007     6 C    1.007    19 H    0.977
                            20 H    0.977
     6   6 C    3.996 --     7 C    1.007     5 C    1.007    22 H    0.977
                            21 H    0.977
     7   6 C    3.997 --     8 C    1.008     6 C    1.007    24 H    0.977
                            23 H    0.977
     8   6 C    3.997 --     9 C    1.019     7 C    1.008    26 H    0.979
                            25 H    0.979
     9   6 C    3.996 --     8 C    1.019    29 H    0.988    27 H    0.988
                            28 H    0.988
    10   1 H    0.900 --     1 N    0.887
    11   1 H    0.905 --     1 N    0.890
    12   1 H    0.905 --     1 N    0.890
    13   1 H    0.989 --     2 C    0.966
    14   1 H    0.989 --     2 C    0.966
    15   1 H    0.996 --     3 C    0.973
    16   1 H    0.996 --     3 C    0.973
    17   1 H    0.998 --     4 C    0.977
    18   1 H    0.998 --     4 C    0.977
    19   1 H    0.999 --     5 C    0.977
    20   1 H    0.999 --     5 C    0.977
    21   1 H    0.999 --     6 C    0.977
    22   1 H    0.999 --     6 C    0.977
    23   1 H    0.999 --     7 C    0.977
    24   1 H    0.999 --     7 C    0.977
    25   1 H    0.999 --     8 C    0.979
    26   1 H    0.999 --     8 C    0.979
    27   1 H    0.999 --     9 C    0.988
    28   1 H    0.999 --     9 C    0.988
    29   1 H    0.999 --     9 C    0.988
 ---------------------------------------------------------------------------

molecular dipole:
                 x           y           z       tot (Debye)
 q only:        2.026       0.001      -0.134
   full:        2.043       0.048      -0.075       5.198

           -------------------------------------------------
          | TOTAL ENERGY              -29.937641925911 Eh   |
          | GRADIENT NORM               0.000454851527 Eh/α |
          | HOMO-LUMO GAP               9.927037651838 eV   |
           -------------------------------------------------

 * finished run on 2023/01/24 at 14:57:52.056
