   * xtb version 6.5.1 (fef0646) compiled by 'conda@b96dff2e9fd6' on 2023-01-04
          program call               : xtb init.xyz --opt -c 1 -u 0 -P 16

   ID    Z sym.   atoms
    1    7 N      1
    2    6 C      2-7, 9, 10
    3   17 Cl     8
    4    1 H      11-21

          :  Hamiltonian                  GFN2-xTB          :
 * total energy  :   -29.7684069 Eh     change       -0.9796750E-09 Eh
 * total energy  :   -29.7703518 Eh     change       -0.1944935E-02 Eh
 * total energy  :   -29.7707489 Eh     change       -0.3970562E-03 Eh
 * total energy  :   -29.7709388 Eh     change       -0.1899786E-03 Eh
 * total energy  :   -29.7711095 Eh     change       -0.1706506E-03 Eh
 * total energy  :   -29.7712529 Eh     change       -0.1433697E-03 Eh
 * total energy  :   -29.7714240 Eh     change       -0.1711622E-03 Eh
 * total energy  :   -29.7716197 Eh     change       -0.1956449E-03 Eh
 * total energy  :   -29.7717909 Eh     change       -0.1712134E-03 Eh
 * total energy  :   -29.7719093 Eh     change       -0.1184600E-03 Eh
 * total energy  :   -29.7728030 Eh     change       -0.9064208E-04 Eh
 * total energy  :   -29.7728405 Eh     change       -0.3754053E-04 Eh
 * total energy  :   -29.7728619 Eh     change       -0.2138206E-04 Eh
 * total energy  :   -29.7728811 Eh     change       -0.1920700E-04 Eh
 * total energy  :   -29.7729039 Eh     change       -0.2282827E-04 Eh
 * total energy  :   -29.7729269 Eh     change       -0.2296357E-04 Eh
 * total energy  :   -29.7729360 Eh     change       -0.9105171E-05 Eh
 * total energy  :   -29.7729433 Eh     change       -0.7264891E-05 Eh
 * total energy  :   -29.7729454 Eh     change       -0.2149828E-05 Eh
   *** GEOMETRY OPTIMIZATION CONVERGED AFTER 26 ITERATIONS ***

 final structure:
================
21
 xtb: 6.5.1 (fef0646)
N            3.05791789088053       -3.47113736373722        1.42691277426255
C            2.51836546288337       -2.73507248203412        0.24527602101665
C            2.99856235250469       -1.28478997375348        0.33150968327921
C            4.50404120452764       -1.27580411210335        0.40976545634234
C            5.27517769355596       -1.28851320727168       -0.74748564831341
C            6.65261153360006       -1.36764476948924       -0.67843968030999
C            7.28170213063874       -1.44684280691387        0.55983222893797
Cl           8.99554266814136       -1.55662485531097        0.64959280643238
C            6.52773691383539       -1.42596746414605        1.72542553693085
C            5.14618841162983       -1.34875745978184        1.64720613827421
H            3.08219154939637       -4.48538844040645        1.28304160541238
H            2.50550460771889       -3.26782210743675        2.26761636388878
H            4.02813895012548       -3.09120968637012        1.57208351862373
H            1.43088519621915       -2.80076438939323        0.23203131779833
H            2.91484789364480       -3.19966456656998       -0.65826777800694
H            2.56411015552735       -0.79594169501924        1.20446155008136
H            2.66002282992636       -0.74988048019122       -0.55417436009162
H            4.79406896188119       -1.21950752487965       -1.71114358731936
H            7.24403536832601       -1.36292447907024       -1.57925582626215
H            7.01885478010591       -1.45886800627583        2.68426763786532
H            4.57999344493132       -1.25397412984569        2.56547424115746

          :  Hamiltonian                  GFN2-xTB          :
         :: total energy             -29.772945417928 Eh    ::
         :: gradient norm              0.000198478967 Eh/a0 ::
         :: HOMO-LUMO gap              3.831059839730 eV    ::
         :: SCC energy               -30.206418027090 Eh    ::
         :: -> dispersion             -0.017101599387 Eh    ::
         :: repulsion energy           0.433383067465 Eh    ::

    * Orbital Energies and Occupations

         #    Occupation            Energy/Eh            Energy/eV
      -------------------------------------------------------------
         1        2.0000           -1.1546397             -31.4193
       ...           ...                  ...                  ...
        15        2.0000           -0.6563790             -17.8610
        16        2.0000           -0.6478585             -17.6291
        17        2.0000           -0.6333600             -17.2346
        18        2.0000           -0.6238065             -16.9746
        19        2.0000           -0.6187351             -16.8366
        20        2.0000           -0.6135522             -16.6956
        21        2.0000           -0.6130819             -16.6828
        22        2.0000           -0.5712527             -15.5446
        23        2.0000           -0.5692406             -15.4898
        24        2.0000           -0.5635477             -15.3349
        25        2.0000           -0.5479421             -14.9103
        26        2.0000           -0.5204885             -14.1632
        27        2.0000           -0.5106730             -13.8961 (HOMO)
        28                         -0.3698841             -10.0651 (LUMO)
        29                         -0.3668010              -9.9812
        30                         -0.2509103              -6.8276
        31                         -0.2426036              -6.6016
        32                         -0.2327884              -6.3345
        33                         -0.1486895              -4.0460
        34                         -0.0947968              -2.5796
        35                         -0.0878860              -2.3915
        36                         -0.0864585              -2.3527
        37                         -0.0816304              -2.2213
        38                         -0.0814058              -2.2152
       ...                                ...                  ...
        56                          0.5033021              13.6955
      -------------------------------------------------------------
                  HL-Gap            0.1407889 Eh            3.8311 eV

     #   Z          covCN         q      C6AA      α(0)
     1   7 N        3.483    -0.142    24.068     7.286
     2   6 C        3.734    -0.031    21.219     6.574
     3   6 C        3.809    -0.093    22.268     6.717
     4   6 C        2.971    -0.009    28.232     8.715
     5   6 C        2.923    -0.036    28.886     8.814
     6   6 C        2.953    -0.032    28.796     8.801
     7   6 C        2.885     0.107    25.636     8.301
     8  17 Cl       0.967    -0.125   103.047    15.530
     9   6 C        2.953    -0.040    28.982     8.830
    10   6 C        2.923    -0.062    29.547     8.914
    11   1 H        0.859     0.263     0.834     1.431
    12   1 H        0.859     0.265     0.827     1.425
    13   1 H        0.857     0.279     0.779     1.383
    14   1 H        0.925     0.106     1.729     2.056
    15   1 H        0.924     0.106     1.731     2.058
    16   1 H        0.924     0.075     2.034     2.230
    17   1 H        0.925     0.098     1.800     2.098
    18   1 H        0.926     0.064     2.153     2.294
    19   1 H        0.926     0.083     1.952     2.185
    20   1 H        0.926     0.076     2.018     2.222
    21   1 H        0.925     0.046     2.365     2.405

Wiberg/Mayer (AO) data.
largest (>0.10) Wiberg bond orders for each atom

     #   Z sym  total        # sym  WBO       # sym  WBO       # sym  WBO
 ---------------------------------------------------------------------------
     1   7 N    3.666 --     2 C    0.934    11 H    0.917    12 H    0.915
                            13 H    0.845
     2   6 C    3.897 --     3 C    0.994    15 H    0.968    14 H    0.967
                             1 N    0.934
     3   6 C    3.979 --     4 C    1.006     2 C    0.994    16 H    0.968
                            17 H    0.959
     4   6 C    3.987 --     5 C    1.400    10 C    1.385     3 C    1.006
     5   6 C    3.989 --     6 C    1.458     4 C    1.400    18 H    0.965
                             9 C    0.105
     6   6 C    3.986 --     5 C    1.458     7 C    1.383    19 H    0.964
                            10 C    0.102
     7   6 C    3.928 --     9 C    1.396     6 C    1.383     8 Cl   1.018
     8  17 Cl   1.175 --     7 C    1.018
     9   6 C    3.986 --    10 C    1.433     7 C    1.396    20 H    0.965
                             5 C    0.105
    10   6 C    3.989 --     9 C    1.433     4 C    1.385    21 H    0.960
                             6 C    0.102
    11   1 H    0.931 --     1 N    0.917
    12   1 H    0.930 --     1 N    0.915
    13   1 H    0.922 --     1 N    0.845
    14   1 H    0.988 --     2 C    0.967
    15   1 H    0.989 --     2 C    0.968
    16   1 H    0.994 --     3 C    0.968
    17   1 H    0.990 --     3 C    0.959
    18   1 H    0.996 --     5 C    0.965
    19   1 H    0.993 --     6 C    0.964
    20   1 H    0.994 --     9 C    0.965
    21   1 H    0.998 --    10 C    0.960
 ---------------------------------------------------------------------------

molecular dipole:
                 x           y           z       tot (Debye)
 q only:        5.696      -5.785       2.010
   full:        6.179      -5.876       2.178      22.369

           -------------------------------------------------
          | TOTAL ENERGY              -29.772945417928 Eh   |
          | GRADIENT NORM               0.000198478967 Eh/α |
          | HOMO-LUMO GAP               3.831059839730 eV   |
           -------------------------------------------------

 * finished run on 2023/01/23 at 14:07:08.743
