   * xtb version 6.5.1 (fef0646) compiled by 'conda@b96dff2e9fd6' on 2023-01-04
          program call               : xtb init.xyz --opt -c 0 -u 0 -P 16 --alpb water

   ID    Z sym.   atoms
    1    7 N      1
    2    6 C      2-12, 14-18
    3    9 F      13
    4   17 Cl     19
    5    1 H      20-36

      * Solvation model:               ALPB
        Solvent                        water
        Solvent mass                       1.8000E+01 g/mol
          :  Hamiltonian                  GFN2-xTB          :
 * total energy  :   -55.1368813 Eh     change       -0.1244196E-08 Eh
 * total energy  :   -55.1433873 Eh     change       -0.6505965E-02 Eh
 * total energy  :   -55.1451034 Eh     change       -0.1716060E-02 Eh
 * total energy  :   -55.1458408 Eh     change       -0.7374586E-03 Eh
 * total energy  :   -55.1464106 Eh     change       -0.5698125E-03 Eh
 * total energy  :   -55.1469003 Eh     change       -0.4896197E-03 Eh
 * total energy  :   -55.1472810 Eh     change       -0.3807569E-03 Eh
 * total energy  :   -55.1474884 Eh     change       -0.2073820E-03 Eh
 * total energy  :   -55.1475736 Eh     change       -0.8515528E-04 Eh
 * total energy  :   -55.1476598 Eh     change       -0.8623831E-04 Eh
 * total energy  :   -55.1489868 Eh     change       -0.2394153E-04 Eh
 * total energy  :   -55.1490123 Eh     change       -0.2551499E-04 Eh
 * total energy  :   -55.1490335 Eh     change       -0.2119698E-04 Eh
 * total energy  :   -55.1490513 Eh     change       -0.1777127E-04 Eh
 * total energy  :   -55.1490631 Eh     change       -0.1183189E-04 Eh
 * total energy  :   -55.1490700 Eh     change       -0.6854574E-05 Eh
 * total energy  :   -55.1490827 Eh     change       -0.1267479E-04 Eh
 * total energy  :   -55.1490878 Eh     change       -0.5190568E-05 Eh
 * total energy  :   -55.1490910 Eh     change       -0.3202114E-05 Eh
   *** GEOMETRY OPTIMIZATION CONVERGED AFTER 39 ITERATIONS ***

 final structure:
================
36
 xtb: 6.5.1 (fef0646)
N            1.00786075629104        1.56825399554076        1.28471846817177
C            2.45389193804006        1.55578734807256        1.58212047668739
C            2.99801384481708        0.13515601177353        1.42870879784562
C            4.49749486916620        0.12863943973225        1.51000186898884
C            5.15261029275774       -0.13674656633145        2.70691159391735
C            6.53090780379882       -0.13368297890982        2.77908675739706
C            7.30575441527508        0.14255378915528        1.64996829677705
C            8.75628120657231        0.13809638854894        1.65720783063342
C            9.54188739004387       -0.34971057683948        2.62819373198730
C           10.99233991941084       -0.38231352176745        2.61265278319640
C           11.75618668939847        0.34024894369452        1.69167742772971
C           13.12848482164809        0.24155546783536        1.73529486594647
F           13.86020546593641        0.95839592365906        0.82549722440058
C           13.80099861911321       -0.54338797322665        2.65243765415054
C           13.04319141495533       -1.25237461463611        3.57106271893443
C           11.66472940809359       -1.16893317758894        3.55451850107033
C            6.63943900773620        0.43180019196869        0.45472608899094
C            5.26187163735270        0.42077640328427        0.38615607472466
Cl           0.62633259084048        0.51733433797693       -1.56280757421297
H            0.61695011192112        2.51038846389104        1.35132819980674
H            0.50055215624099        0.93675555573277        1.90972023036805
H            0.85171128760978        1.22285605917072        0.30253039712145
H            2.62828263839419        1.92104242966347        2.59501430902235
H            2.96127860453192        2.21006948279175        0.87322239878634
H            2.68240660617890       -0.24320446392339        0.45435135272270
H            2.58708312250700       -0.50984766266752        2.20533518956815
H            4.57647560872246       -0.35756149811095        3.59301097750465
H            7.01119849769028       -0.33794478737926        3.72289767249661
H            9.20820433125524        0.54047495181992        0.76012582898097
H            9.09341635460709       -0.80274034431280        3.50124857215612
H           11.30004168716922        0.98189330986067        0.95584710642824
H           14.87736219708260       -0.58765104293488        2.64160305123819
H           13.53877067243822       -1.87102803629367        4.30270899380257
H           11.08980489017674       -1.72834210560228        4.27686750496799
H            7.21683762963021        0.65293821975910       -0.43198532457789
H            4.76772151259325        0.62976263659469       -0.55210004772628

          :  Hamiltonian                  GFN2-xTB          :
         :: total energy             -55.149091046319 Eh    ::
         :: gradient norm              0.000549154224 Eh/a0 ::
         :: HOMO-LUMO gap              2.734978947759 eV    ::
         :: SCC energy               -55.992165266621 Eh    ::
         :: -> dispersion             -0.033201568857 Eh    ::
         :: -> Gsolv                  -0.080025115924 Eh    ::
         :: repulsion energy           0.843457745257 Eh    ::

    * Orbital Energies and Occupations

         #    Occupation            Energy/Eh            Energy/eV
      -------------------------------------------------------------
         1        2.0000           -1.0066395             -27.3921
       ...           ...                  ...                  ...
        38        2.0000           -0.4403683             -11.9830
        39        2.0000           -0.4398943             -11.9701
        40        2.0000           -0.4346376             -11.8271
        41        2.0000           -0.4310847             -11.7304
        42        2.0000           -0.4209837             -11.4556
        43        2.0000           -0.4131186             -11.2415
        44        2.0000           -0.4115788             -11.1996
        45        2.0000           -0.4095018             -11.1431
        46        2.0000           -0.4028088             -10.9610
        47        2.0000           -0.4005770             -10.9003
        48        2.0000           -0.4003963             -10.8953
        49        2.0000           -0.3998006             -10.8791
        50        2.0000           -0.3710886             -10.0978 (HOMO)
        51                         -0.2705800              -7.3629 (LUMO)
        52                         -0.2309893              -6.2855
        53                         -0.2175244              -5.9191
        54                         -0.2140426              -5.8244
        55                         -0.1644230              -4.4742
        56                         -0.0923534              -2.5131
        57                         -0.0721152              -1.9624
        58                         -0.0249087              -0.6778
        59                          0.0292072               0.7948
        60                          0.0785365               2.1371
        61                          0.0989842               2.6935
       ...                                ...                  ...
        98                          0.6995480              19.0357
      -------------------------------------------------------------
                  HL-Gap            0.1005086 Eh            2.7350 eV

     #   Z          covCN         q      C6AA      α(0)
     1   7 N        3.484    -0.170    24.670     7.377
     2   6 C        3.734    -0.021    21.034     6.546
     3   6 C        3.809    -0.086    22.140     6.698
     4   6 C        2.971     0.016    27.652     8.626
     5   6 C        2.922    -0.045    29.125     8.850
     6   6 C        2.922    -0.039    28.969     8.826
     7   6 C        2.971     0.009    27.822     8.652
     8   6 C        2.902    -0.036    28.894     8.814
     9   6 C        2.901    -0.046    29.131     8.850
    10   6 C        2.975     0.020    27.558     8.611
    11   6 C        2.920    -0.057    29.426     8.896
    12   6 C        2.787     0.166    24.406     8.092
    13   9 F        0.786    -0.286    12.158     4.119
    14   6 C        2.916    -0.056    29.402     8.892
    15   6 C        2.923    -0.034    28.842     8.807
    16   6 C        2.927    -0.045    29.113     8.849
    17   6 C        2.927    -0.038    28.946     8.823
    18   6 C        2.922    -0.041    29.031     8.836
    19  17 Cl       0.048    -0.947   124.875    17.007
    20   1 H        0.859     0.305     0.700     1.311
    21   1 H        0.859     0.299     0.716     1.325
    22   1 H        0.905     0.295     0.724     1.331
    23   1 H        0.924     0.106     1.729     2.056
    24   1 H        0.925     0.095     1.830     2.115
    25   1 H        0.924     0.070     2.087     2.259
    26   1 H        0.925     0.071     2.074     2.252
    27   1 H        0.926     0.053     2.286     2.365
    28   1 H        0.926     0.044     2.401     2.423
    29   1 H        0.925     0.039     2.463     2.454
    30   1 H        0.926     0.053     2.289     2.366
    31   1 H        0.926     0.061     2.191     2.315
    32   1 H        0.926     0.062     2.177     2.307
    33   1 H        0.926     0.061     2.183     2.310
    34   1 H        0.926     0.060     2.194     2.316
    35   1 H        0.926     0.029     2.599     2.521
    36   1 H        0.926     0.035     2.523     2.484

Wiberg/Mayer (AO) data.
largest (>0.10) Wiberg bond orders for each atom

     #   Z sym  total        # sym  WBO       # sym  WBO       # sym  WBO
 ---------------------------------------------------------------------------
     1   7 N    3.643 --     2 C    0.970    21 H    0.895    20 H    0.893
                            22 H    0.832
     2   6 C    3.930 --     3 C    0.992     1 N    0.970    24 H    0.969
                            23 H    0.968
     3   6 C    3.990 --     4 C    1.011     2 C    0.992    26 H    0.970
                            25 H    0.964
     4   6 C    3.977 --     5 C    1.400    18 C    1.398     3 C    1.011
     5   6 C    3.990 --     6 C    1.467     4 C    1.400    27 H    0.967
                            17 C    0.100
     6   6 C    3.977 --     5 C    1.467     7 C    1.362    28 H    0.965
                            18 C    0.102
     7   6 C    3.989 --     6 C    1.362    17 C    1.360     8 C    1.115
     8   6 C    3.990 --     9 C    1.757     7 C    1.115    29 H    0.959
     9   6 C    3.987 --     8 C    1.757    10 C    1.114    30 H    0.957
    10   6 C    3.987 --    16 C    1.364    11 C    1.360     9 C    1.114
    11   6 C    3.978 --    12 C    1.429    10 C    1.360    31 H    0.961
                            15 C    0.104
    12   6 C    3.861 --    11 C    1.429    14 C    1.394    13 F    0.909
    13   9 F    1.024 --    12 C    0.909
    14   6 C    3.976 --    15 C    1.424    12 C    1.394    32 H    0.967
    15   6 C    3.989 --    16 C    1.462    14 C    1.424    33 H    0.968
                            11 C    0.104
    16   6 C    3.975 --    15 C    1.462    10 C    1.364    34 H    0.966
    17   6 C    3.982 --    18 C    1.469     7 C    1.360    35 H    0.969
                             5 C    0.100
    18   6 C    3.991 --    17 C    1.469     4 C    1.398    36 H    0.969
                             6 C    0.102
    19  17 Cl   0.103
    20   1 H    0.907 --     1 N    0.893
    21   1 H    0.910 --     1 N    0.895
    22   1 H    0.913 --     1 N    0.832
    23   1 H    0.989 --     2 C    0.968
    24   1 H    0.991 --     2 C    0.969
    25   1 H    0.994 --     3 C    0.964
    26   1 H    0.994 --     3 C    0.970
    27   1 H    0.997 --     5 C    0.967
    28   1 H    0.998 --     6 C    0.965
    29   1 H    0.998 --     8 C    0.959
    30   1 H    0.997 --     9 C    0.957
    31   1 H    0.996 --    11 C    0.961
    32   1 H    0.996 --    14 C    0.967
    33   1 H    0.996 --    15 C    0.968
    34   1 H    0.996 --    16 C    0.966
    35   1 H    0.999 --    17 C    0.969
    36   1 H    0.998 --    18 C    0.969
 ---------------------------------------------------------------------------

molecular dipole:
                 x           y           z       tot (Debye)
 q only:       -0.445       1.158       6.001
   full:       -0.563       0.981       5.148      13.397

           -------------------------------------------------
          | TOTAL ENERGY              -55.149091046319 Eh   |
          | GRADIENT NORM               0.000549154224 Eh/α |
          | HOMO-LUMO GAP               2.734978947759 eV   |
           -------------------------------------------------

 * finished run on 2023/01/24 at 15:29:51.911
