   * xtb version 6.5.1 (fef0646) compiled by 'conda@b96dff2e9fd6' on 2023-01-04
          program call               : xtb init.xyz --opt -c 0 -u 0 -P 16 --input xtb.inp

   ID    Z sym.   atoms
    1    7 N      1
    2    6 C      2-12, 14-18
    3    9 F      13
    4   17 Cl     19
    5    1 H      20-36

          :  Hamiltonian                  GFN2-xTB          :
 * total energy  :   -55.0769931 Eh     change       -0.1126239E-08 Eh
 * total energy  :   -55.0875499 Eh     change       -0.1055684E-01 Eh
 * total energy  :   -55.0930379 Eh     change       -0.5487948E-02 Eh
 * total energy  :   -55.0963137 Eh     change       -0.3275857E-02 Eh
 * total energy  :   -55.0987229 Eh     change       -0.2409198E-02 Eh
 * total energy  :   -55.1005762 Eh     change       -0.1853237E-02 Eh
 * total energy  :   -55.1015486 Eh     change       -0.9724125E-03 Eh
 * total energy  :   -55.1019081 Eh     change       -0.3594645E-03 Eh
 * total energy  :   -55.1021591 Eh     change       -0.2510869E-03 Eh
 * total energy  :   -55.1022525 Eh     change       -0.9336925E-04 Eh
 * total energy  :   -55.1041788 Eh     change       -0.8553785E-05 Eh
 * total energy  :   -55.1041865 Eh     change       -0.7690625E-05 Eh
 * total energy  :   -55.1041967 Eh     change       -0.1021981E-04 Eh
 * total energy  :   -55.1042048 Eh     change       -0.8098078E-05 Eh
 * total energy  :   -55.1042121 Eh     change       -0.7329937E-05 Eh
 * total energy  :   -55.1042117 Eh     change        0.3951750E-06 Eh
 * total energy  :   -55.1042204 Eh     change       -0.8690649E-05 Eh
 * total energy  :   -55.1042280 Eh     change       -0.7598342E-05 Eh
 * total energy  :   -55.1042308 Eh     change       -0.2848446E-05 Eh
   *** GEOMETRY OPTIMIZATION CONVERGED AFTER 44 ITERATIONS ***

 final structure:
================
36
 xtb: 6.5.1 (fef0646)
N            2.85279381023351        0.38815714859423        2.80534962157960
C            2.36659459703320       -0.83513934091787        2.17105293062833
C            2.89782602106120       -0.92290737437991        0.73532193454472
C            4.39579388051233       -1.02722412032217        0.72445045955888
C            5.02507912886088       -2.25597548172539        0.89345145932638
C            6.40117916094775       -2.35303169046115        0.92138813915675
C            7.20158718981988       -1.21578079217046        0.78609584179500
C            8.65166791166239       -1.25573303379005        0.80184505920050
C            9.41603715435744       -2.35109131041221        0.69051660838031
C           10.86731481425026       -2.37814939107983        0.68948772231223
C           11.64298366574346       -1.29159575093023        1.09947397502328
C           13.01768436793852       -1.38914388945143        1.06516994737872
F           13.75155880139778       -0.32908335481204        1.47143298705057
C           13.67313092370872       -2.52968712665949        0.63643947864551
C           12.90442064520569       -3.60982999149514        0.23619468624041
C           11.52540909537809       -3.53771641426712        0.26724355698307
C            6.56172516732795        0.01759749594279        0.63205712709096
C            5.18514096427897        0.11070997726801        0.59686598967018
Cl           2.20262502009389        2.73203248130474        1.17657227873467
H            2.47305332130461        0.49889748056250        3.73856888016367
H            2.48865467566216        1.62177639220922        1.94463961176827
H            3.86713675228720        0.37817099515667        2.85716568341216
H            1.27555627251794       -0.79024782617991        2.15357687250960
H            2.66898584627963       -1.73347438111806        2.72817109638210
H            2.58317327531610       -0.03037225831502        0.19574875684071
H            2.45768018530135       -1.79918334523745        0.25744333450715
H            4.42517468955720       -3.14940460039781        0.99947046107215
H            6.85848671238938       -3.32052562353851        1.06114715856650
H            9.12389595045723       -0.28513217865785        0.87857273100179
H            8.94894224654273       -3.31703524083500        0.55238398892670
H           11.19247961434075       -0.38025195211351        1.45749447231311
H           14.75065460574980       -2.56151920627483        0.62488155878963
H           13.38948264653226       -4.51348419355013       -0.10089397071281
H           10.93996516891255       -4.38858337917778       -0.04947684963950
H            7.15857832512551        0.91262811875867        0.52833044822295
H            4.71182739191822        1.07258315846972        0.46542596256902

          :  Hamiltonian                  GFN2-xTB          :
         :: total energy             -55.104230852871 Eh    ::
         :: gradient norm              0.000458019643 Eh/a0 ::
         :: HOMO-LUMO gap              2.775680333470 eV    ::
         :: SCC energy               -55.939005380676 Eh    ::
         :: -> dispersion             -0.035192363703 Eh    ::
         :: repulsion energy           0.835056611419 Eh    ::

    * Orbital Energies and Occupations

         #    Occupation            Energy/Eh            Energy/eV
      -------------------------------------------------------------
         1        2.0000           -1.0193789             -27.7387
       ...           ...                  ...                  ...
        38        2.0000           -0.4555932             -12.3973
        39        2.0000           -0.4472973             -12.1716
        40        2.0000           -0.4432929             -12.0626
        41        2.0000           -0.4374790             -11.9044
        42        2.0000           -0.4291011             -11.6764
        43        2.0000           -0.4240756             -11.5397
        44        2.0000           -0.4197791             -11.4228
        45        2.0000           -0.4126103             -11.2277
        46        2.0000           -0.4114969             -11.1974
        47        2.0000           -0.4014308             -10.9235
        48        2.0000           -0.3963532             -10.7853
        49        2.0000           -0.3961155             -10.7789
        50        2.0000           -0.3800432             -10.3415 (HOMO)
        51                         -0.2780388              -7.5658 (LUMO)
        52                         -0.2341508              -6.3716
        53                         -0.2295702              -6.2469
        54                         -0.2216694              -6.0319
        55                         -0.1726622              -4.6984
        56                         -0.0987620              -2.6875
        57                         -0.0811006              -2.2069
        58                         -0.0576284              -1.5681
        59                          0.0184165               0.5011
        60                          0.0498171               1.3556
        61                          0.0650532               1.7702
       ...                                ...                  ...
        98                          0.6909157              18.8008
      -------------------------------------------------------------
                  HL-Gap            0.1020044 Eh            2.7757 eV

     #   Z          covCN         q      C6AA      α(0)
     1   7 N        2.707    -0.302    27.776     7.827
     2   6 C        3.733     0.012    20.470     6.458
     3   6 C        3.809    -0.081    22.044     6.683
     4   6 C        2.971     0.011    27.764     8.643
     5   6 C        2.922    -0.040    29.001     8.831
     6   6 C        2.922    -0.036    28.884     8.813
     7   6 C        2.970     0.011    27.776     8.645
     8   6 C        2.902    -0.036    28.899     8.814
     9   6 C        2.901    -0.040    28.993     8.829
    10   6 C        2.974     0.018    27.612     8.619
    11   6 C        2.921    -0.055    29.361     8.886
    12   6 C        2.785     0.169    24.350     8.083
    13   9 F        0.787    -0.231    11.559     4.016
    14   6 C        2.917    -0.051    29.263     8.871
    15   6 C        2.922    -0.029    28.732     8.790
    16   6 C        2.927    -0.041    29.022     8.835
    17   6 C        2.927    -0.035    28.881     8.813
    18   6 C        2.921    -0.045    29.110     8.848
    19  17 Cl       0.836    -0.494   115.451    16.437
    20   1 H        0.860     0.165     1.300     1.786
    21   1 H        0.912     0.333     0.618     1.230
    22   1 H        0.860     0.173     1.257     1.757
    23   1 H        0.924     0.052     2.291     2.367
    24   1 H        0.923     0.027     2.630     2.536
    25   1 H        0.925     0.072     2.069     2.249
    26   1 H        0.924     0.050     2.315     2.379
    27   1 H        0.925     0.029     2.601     2.522
    28   1 H        0.926     0.033     2.546     2.495
    29   1 H        0.925     0.040     2.443     2.444
    30   1 H        0.925     0.040     2.454     2.450
    31   1 H        0.926     0.057     2.235     2.338
    32   1 H        0.926     0.055     2.254     2.348
    33   1 H        0.926     0.043     2.412     2.429
    34   1 H        0.926     0.040     2.444     2.445
    35   1 H        0.926     0.035     2.518     2.481
    36   1 H        0.926     0.052     2.299     2.371

Wiberg/Mayer (AO) data.
largest (>0.10) Wiberg bond orders for each atom

     #   Z sym  total        # sym  WBO       # sym  WBO       # sym  WBO
 ---------------------------------------------------------------------------
     1   7 N    3.250 --     2 C    1.007    20 H    0.959    22 H    0.951
                            21 H    0.216
     2   6 C    3.973 --     1 N    1.007     3 C    0.988    23 H    0.974
                            24 H    0.972
     3   6 C    3.992 --     4 C    1.013     2 C    0.988    26 H    0.969
                            25 H    0.968
     4   6 C    3.978 --    18 C    1.399     5 C    1.398     3 C    1.013
     5   6 C    3.992 --     6 C    1.470     4 C    1.398    27 H    0.969
                            17 C    0.101
     6   6 C    3.979 --     5 C    1.470     7 C    1.361    28 H    0.966
                            18 C    0.102
     7   6 C    3.989 --    17 C    1.363     6 C    1.361     8 C    1.113
     8   6 C    3.990 --     9 C    1.761     7 C    1.113    29 H    0.959
     9   6 C    3.988 --     8 C    1.761    10 C    1.111    30 H    0.959
    10   6 C    3.988 --    11 C    1.365    16 C    1.364     9 C    1.111
    11   6 C    3.980 --    12 C    1.420    10 C    1.365    31 H    0.962
                            15 C    0.103
    12   6 C    3.886 --    11 C    1.420    14 C    1.386    13 F    0.954
    13   9 F    1.083 --    12 C    0.954
    14   6 C    3.978 --    15 C    1.429    12 C    1.386    32 H    0.968
    15   6 C    3.991 --    16 C    1.460    14 C    1.429    33 H    0.970
                            11 C    0.103
    16   6 C    3.977 --    15 C    1.460    10 C    1.364    34 H    0.969
    17   6 C    3.982 --    18 C    1.464     7 C    1.363    35 H    0.968
                             5 C    0.101
    18   6 C    3.990 --    17 C    1.464     4 C    1.399    36 H    0.966
                             6 C    0.102
    19  17 Cl   0.760 --    21 H    0.667
    20   1 H    0.972 --     1 N    0.959
    21   1 H    0.889 --    19 Cl   0.667     1 N    0.216
    22   1 H    0.970 --     1 N    0.951
    23   1 H    0.996 --     2 C    0.974
    24   1 H    0.999 --     2 C    0.972
    25   1 H    0.994 --     3 C    0.968
    26   1 H    0.997 --     3 C    0.969
    27   1 H    0.999 --     5 C    0.969
    28   1 H    0.999 --     6 C    0.966
    29   1 H    0.998 --     8 C    0.959
    30   1 H    0.998 --     9 C    0.959
    31   1 H    0.997 --    11 C    0.962
    32   1 H    0.997 --    14 C    0.968
    33   1 H    0.998 --    15 C    0.970
    34   1 H    0.998 --    16 C    0.969
    35   1 H    0.998 --    17 C    0.968
    36   1 H    0.997 --    18 C    0.966
 ---------------------------------------------------------------------------

molecular dipole:
                 x           y           z       tot (Debye)
 q only:       -0.366      -2.172       0.696
   full:       -0.362      -2.026       0.740       5.560

           -------------------------------------------------
          | TOTAL ENERGY              -55.104230852871 Eh   |
          | GRADIENT NORM               0.000458019643 Eh/α |
          | HOMO-LUMO GAP               2.775680333470 eV   |
           -------------------------------------------------

 * finished run on 2023/01/23 at 19:09:49.697
