   * xtb version 6.5.1 (fef0646) compiled by 'conda@b96dff2e9fd6' on 2023-01-04
          program call               : xtb init.xyz --opt -c 1 -u 0 -P 16 --alpb water

   ID    Z sym.   atoms
    1    7 N      1
    2    6 C      2-7, 9, 10
    3   35 Br     8
    4    1 H      11-21

      * Solvation model:               ALPB
        Solvent                        water
        Solvent mass                       1.8000E+01 g/mol
          :  Hamiltonian                  GFN2-xTB          :
 * total energy  :   -29.4107180 Eh     change       -0.1164196E-08 Eh
 * total energy  :   -29.4131846 Eh     change       -0.2466642E-02 Eh
 * total energy  :   -29.4135937 Eh     change       -0.4090784E-03 Eh
 * total energy  :   -29.4136769 Eh     change       -0.8320364E-04 Eh
 * total energy  :   -29.4137249 Eh     change       -0.4804879E-04 Eh
 * total energy  :   -29.4137684 Eh     change       -0.4342606E-04 Eh
 * total energy  :   -29.4138019 Eh     change       -0.3353772E-04 Eh
 * total energy  :   -29.4138582 Eh     change       -0.5631699E-04 Eh
 * total energy  :   -29.4139052 Eh     change       -0.4695816E-04 Eh
 * total energy  :   -29.4139229 Eh     change       -0.1772708E-04 Eh
 * total energy  :   -29.4140033 Eh     change       -0.2240725E-04 Eh
 * total energy  :   -29.4140241 Eh     change       -0.2077064E-04 Eh
 * total energy  :   -29.4140494 Eh     change       -0.2537388E-04 Eh
 * total energy  :   -29.4140781 Eh     change       -0.2867501E-04 Eh
 * total energy  :   -29.4140944 Eh     change       -0.1633206E-04 Eh
 * total energy  :   -29.4140794 Eh     change        0.1502251E-04 Eh
 * total energy  :   -29.4140980 Eh     change       -0.1858798E-04 Eh
 * total energy  :   -29.4141086 Eh     change       -0.1061973E-04 Eh
 * total energy  :   -29.4141121 Eh     change       -0.3498037E-05 Eh
   *** GEOMETRY OPTIMIZATION CONVERGED AFTER 22 ITERATIONS ***

 final structure:
================
21
 xtb: 6.5.1 (fef0646)
N            2.90620490107101        0.14376358336712       -1.00314832990254
C            2.55840822312904        0.55196246002899        0.37954685746848
C            3.07999022274328       -0.47878741247422        1.37966556880730
C            4.58522456186982       -0.50992334416515        1.42019890304943
C            5.29006773201823        0.54262714785342        1.99584323406134
C            6.67219175597758        0.53318084263746        2.03943110611163
C            7.35468834489058       -0.54458624562751        1.50059091187342
Br           9.30159894648049       -0.57325735324378        1.56835113754598
C            6.67958751701643       -1.60305439705419        0.92035351783539
C            5.29528813829909       -1.57579608074342        0.88011249552478
H            2.61748917580979        0.85947345636848       -1.67939194425620
H            2.44297190568133       -0.74139950803770       -1.24091801990449
H            3.92118066947537        0.00611337498922       -1.07923966981755
H            1.47576626309219        0.63290522877255        0.46681973855242
H            3.00288464727659        1.52475780868199        0.58645552340487
H            2.69775022061268       -1.46873693796191        1.13376839581942
H            2.70706964516469       -0.21609568264807        2.36910699444054
H            4.76116688025317        1.37567403613970        2.43182822087534
H            7.21651039097757        1.34616837901376        2.49239026336633
H            7.22812575034238       -2.43584757216394        0.51072423264564
H            4.77609410781889       -2.41352178373260        0.44104086249881

          :  Hamiltonian                  GFN2-xTB          :
         :: total energy             -29.414112132924 Eh    ::
         :: gradient norm              0.000209514214 Eh/a0 ::
         :: HOMO-LUMO gap              4.180431987313 eV    ::
         :: SCC energy               -29.854464808697 Eh    ::
         :: -> dispersion             -0.016958481874 Eh    ::
         :: -> Gsolv                  -0.131439684712 Eh    ::
         :: repulsion energy           0.440279344341 Eh    ::

    * Orbital Energies and Occupations

         #    Occupation            Energy/Eh            Energy/eV
      -------------------------------------------------------------
         1        2.0000           -0.8439003             -22.9637
       ...           ...                  ...                  ...
        15        2.0000           -0.5112178             -13.9109
        16        2.0000           -0.5059687             -13.7681
        17        2.0000           -0.4982158             -13.5571
        18        2.0000           -0.4925615             -13.4033
        19        2.0000           -0.4871953             -13.2573
        20        2.0000           -0.4743666             -12.9082
        21        2.0000           -0.4615722             -12.5600
        22        2.0000           -0.4420159             -12.0279
        23        2.0000           -0.4382540             -11.9255
        24        2.0000           -0.4370002             -11.8914
        25        2.0000           -0.4237038             -11.5296
        26        2.0000           -0.4135982             -11.2546
        27        2.0000           -0.4001165             -10.8877 (HOMO)
        28                         -0.2464884              -6.7073 (LUMO)
        29                         -0.2427141              -6.6046
        30                         -0.2073041              -5.6410
        31                         -0.1196412              -3.2556
        32                         -0.0466434              -1.2692
        33                          0.0347985               0.9469
        34                          0.0358253               0.9749
        35                          0.0381799               1.0389
        36                          0.0589203               1.6033
        37                          0.0715739               1.9476
        38                          0.0760326               2.0690
       ...                                ...                  ...
        56                          0.6336863              17.2435
      -------------------------------------------------------------
                  HL-Gap            0.1536280 Eh            4.1804 eV

     #   Z          covCN         q      C6AA      α(0)
     1   7 N        3.485    -0.156    24.361     7.331
     2   6 C        3.732    -0.039    21.364     6.597
     3   6 C        3.809    -0.099    22.379     6.734
     4   6 C        2.968     0.018    27.601     8.618
     5   6 C        2.928    -0.041    29.031     8.836
     6   6 C        2.969    -0.039    28.960     8.827
     7   6 C        2.915     0.088    26.041     8.368
     8  35 Br       1.024    -0.263   192.393    22.364
     9   6 C        2.969    -0.041    29.011     8.835
    10   6 C        2.927    -0.047    29.175     8.858
    11   1 H        0.859     0.318     0.663     1.275
    12   1 H        0.859     0.312     0.679     1.291
    13   1 H        0.859     0.295     0.730     1.338
    14   1 H        0.925     0.122     1.593     1.974
    15   1 H        0.925     0.113     1.668     2.020
    16   1 H        0.925     0.091     1.868     2.138
    17   1 H        0.925     0.094     1.839     2.121
    18   1 H        0.926     0.077     2.006     2.215
    19   1 H        0.926     0.054     2.267     2.354
    20   1 H        0.926     0.058     2.223     2.332
    21   1 H        0.926     0.084     1.942     2.179

Wiberg/Mayer (AO) data.
largest (>0.10) Wiberg bond orders for each atom

     #   Z sym  total        # sym  WBO       # sym  WBO       # sym  WBO
 ---------------------------------------------------------------------------
     1   7 N    3.656 --     2 C    0.966    13 H    0.895    12 H    0.888
                            11 H    0.886
     2   6 C    3.924 --     3 C    0.999     1 N    0.966    15 H    0.964
                            14 H    0.963
     3   6 C    3.985 --     4 C    1.011     2 C    0.999    16 H    0.966
                            17 H    0.954
     4   6 C    3.987 --    10 C    1.413     5 C    1.402     3 C    1.011
     5   6 C    3.985 --     6 C    1.446     4 C    1.402    18 H    0.962
                             9 C    0.110
     6   6 C    3.987 --     5 C    1.446     7 C    1.404    19 H    0.967
                            10 C    0.107
     7   6 C    3.906 --     9 C    1.414     6 C    1.404     8 Br   0.945
     8  35 Br   1.081 --     7 C    0.945
     9   6 C    3.986 --    10 C    1.432     7 C    1.414    20 H    0.967
                             5 C    0.110
    10   6 C    3.983 --     9 C    1.432     4 C    1.413    21 H    0.961
                             6 C    0.107
    11   1 H    0.899 --     1 N    0.886
    12   1 H    0.903 --     1 N    0.888
    13   1 H    0.913 --     1 N    0.895
    14   1 H    0.984 --     2 C    0.963
    15   1 H    0.987 --     2 C    0.964
    16   1 H    0.991 --     3 C    0.966
    17   1 H    0.991 --     3 C    0.954
    18   1 H    0.994 --     5 C    0.962
    19   1 H    0.997 --     6 C    0.967
    20   1 H    0.996 --     9 C    0.967
    21   1 H    0.993 --    10 C    0.961
 ---------------------------------------------------------------------------

molecular dipole:
                 x           y           z       tot (Debye)
 q only:        3.360       0.322      -1.679
   full:        3.929       0.254      -1.602      10.802

           -------------------------------------------------
          | TOTAL ENERGY              -29.414112132924 Eh   |
          | GRADIENT NORM               0.000209514214 Eh/α |
          | HOMO-LUMO GAP               4.180431987313 eV   |
           -------------------------------------------------

 * finished run on 2023/01/24 at 14:56:18.898
