   * xtb version 6.5.1 (fef0646) compiled by 'conda@b96dff2e9fd6' on 2023-01-04
          program call               : xtb init.xyz --opt -c 0 -u 0 -P 16 --input xtb.inp

   ID    Z sym.   atoms
    1    7 N      1
    2    6 C      2-5
    3   35 Br     6
    4   17 Cl     7
    5    1 H      8-18

          :  Hamiltonian                  GFN2-xTB          :
 * total energy  :   -25.7017161 Eh     change       -0.9853451E-10 Eh
 * total energy  :   -25.7080946 Eh     change       -0.6378525E-02 Eh
 * total energy  :   -25.7146660 Eh     change       -0.6571387E-02 Eh
 * total energy  :   -25.7190787 Eh     change       -0.4412707E-02 Eh
 * total energy  :   -25.7220618 Eh     change       -0.2983015E-02 Eh
 * total energy  :   -25.7240842 Eh     change       -0.2022424E-02 Eh
 * total energy  :   -25.7248809 Eh     change       -0.7966873E-03 Eh
 * total energy  :   -25.7253482 Eh     change       -0.4673665E-03 Eh
 * total energy  :   -25.7254299 Eh     change       -0.8169103E-04 Eh
 * total energy  :   -25.7255907 Eh     change       -0.1607305E-03 Eh
 * total energy  :   -25.7266788 Eh     change       -0.6010264E-04 Eh
 * total energy  :   -25.7267490 Eh     change       -0.7014298E-04 Eh
 * total energy  :   -25.7268188 Eh     change       -0.6981043E-04 Eh
 * total energy  :   -25.7268801 Eh     change       -0.6137718E-04 Eh
 * total energy  :   -25.7269506 Eh     change       -0.7048755E-04 Eh
 * total energy  :   -25.7269756 Eh     change       -0.2492503E-04 Eh
 * total energy  :   -25.7269818 Eh     change       -0.6286606E-05 Eh
 * total energy  :   -25.7269879 Eh     change       -0.6022408E-05 Eh
 * total energy  :   -25.7269919 Eh     change       -0.4026635E-05 Eh
   *** GEOMETRY OPTIMIZATION CONVERGED AFTER 24 ITERATIONS ***

 final structure:
================
18
 xtb: 6.5.1 (fef0646)
N            1.24757082902182        0.33515101597132       -0.24932497388928
C            2.70323245972290        0.26715353508485       -0.35583454109601
C            3.12544799259618       -1.13027264184825       -0.80189261061891
C            4.64495469634555       -1.28234960615770       -0.79651403175628
C            5.04464001188518       -2.67950025427586       -1.23246026373673
Br           6.98852523614713       -2.87907288898578       -1.22747055223402
Cl           0.35309999089469       -1.73209085937125        1.64308280995812
H            0.94419055949960        1.24269037541054        0.08567187116980
H            0.76231159938526       -0.76311033843025        0.76948466298380
H            0.80895601561266        0.15560767982436       -1.14661979780848
H            3.11298917690843        0.47406535995565        0.63531866748986
H            3.10481786698760        1.01535900174578       -1.05446912259862
H            2.74053822864437       -1.32155238161720       -1.80681668402449
H            2.67710997026245       -1.85943119192828       -0.12622374328629
H            5.02639046765353       -1.09189947862275        0.20917485104301
H            5.09459643211375       -0.54685930579384       -1.46873286720997
H            4.71961741946578       -2.89478124030881       -2.24988693520053
H            4.65578104685352       -3.43819678065255       -0.55457673918495

          :  Hamiltonian                  GFN2-xTB          :
         :: total energy             -25.726991892030 Eh    ::
         :: gradient norm              0.000465455435 Eh/a0 ::
         :: HOMO-LUMO gap              5.015788413230 eV    ::
         :: SCC energy               -25.955945782235 Eh    ::
         :: -> dispersion             -0.011475556907 Eh    ::
         :: repulsion energy           0.228942766068 Eh    ::

    * Orbital Energies and Occupations

         #    Occupation            Energy/Eh            Energy/eV
      -------------------------------------------------------------
         1        2.0000           -1.0266566             -27.9367
       ...           ...                  ...                  ...
        11        2.0000           -0.5369850             -14.6121
        12        2.0000           -0.5148102             -14.0087
        13        2.0000           -0.5085554             -13.8385
        14        2.0000           -0.5041700             -13.7192
        15        2.0000           -0.4831665             -13.1476
        16        2.0000           -0.4754889             -12.9387
        17        2.0000           -0.4717781             -12.8377
        18        2.0000           -0.4582851             -12.4706
        19        2.0000           -0.4103161             -11.1653
        20        2.0000           -0.4089819             -11.1290
        21        2.0000           -0.4075182             -11.0891
        22        2.0000           -0.4036158             -10.9829
        23        2.0000           -0.4035665             -10.9816 (HOMO)
        24                         -0.2192397              -5.9658 (LUMO)
        25                         -0.0661582              -1.8003
        26                         -0.0034278              -0.0933
        27                          0.0259586               0.7064
        28                          0.0377923               1.0284
        29                          0.0459625               1.2507
        30                          0.0552081               1.5023
        31                          0.0566272               1.5409
        32                          0.0574101               1.5622
        33                          0.0627077               1.7064
        34                          0.0630960               1.7169
       ...                                ...                  ...
        49                          0.3783586              10.2957
      -------------------------------------------------------------
                  HL-Gap            0.1843268 Eh            5.0158 eV

     #   Z          covCN         q      C6AA      α(0)
     1   7 N        2.682    -0.308    27.919     7.848
     2   6 C        3.732     0.008    20.537     6.469
     3   6 C        3.805    -0.076    21.942     6.669
     4   6 C        3.867    -0.057    21.551     6.601
     5   6 C        3.742     0.024    20.235     6.418
     6  35 Br       0.982    -0.192   190.338    22.245
     7  17 Cl       0.838    -0.478   114.899    16.398
     8   1 H        0.860     0.168     1.282     1.774
     9   1 H        0.889     0.333     0.620     1.233
    10   1 H        0.860     0.167     1.288     1.778
    11   1 H        0.924     0.056     2.248     2.344
    12   1 H        0.923     0.028     2.618     2.530
    13   1 H        0.924     0.040     2.451     2.448
    14   1 H        0.924     0.067     2.118     2.276
    15   1 H        0.924     0.053     2.280     2.362
    16   1 H        0.924     0.048     2.343     2.394
    17   1 H        0.926     0.056     2.241     2.341
    18   1 H        0.926     0.061     2.188     2.313

Wiberg/Mayer (AO) data.
largest (>0.10) Wiberg bond orders for each atom

     #   Z sym  total        # sym  WBO       # sym  WBO       # sym  WBO
 ---------------------------------------------------------------------------
     1   7 N    3.228 --     2 C    1.008    10 H    0.958     8 H    0.958
                             9 H    0.196
     2   6 C    3.973 --     1 N    1.008     3 C    1.005    11 H    0.974
                            12 H    0.972
     3   6 C    3.993 --     2 C    1.005     4 C    1.000    13 H    0.976
                            14 H    0.971
     4   6 C    3.994 --     5 C    1.018     3 C    1.000    16 H    0.976
                            15 H    0.976
     5   6 C    3.953 --     4 C    1.018    17 H    0.979    18 H    0.978
                             6 Br   0.963
     6  35 Br   1.007 --     5 C    0.963
     7  17 Cl   0.774 --     9 H    0.688
     8   1 H    0.971 --     1 N    0.958
     9   1 H    0.889 --     7 Cl   0.688     1 N    0.196
    10   1 H    0.972 --     1 N    0.958
    11   1 H    0.997 --     2 C    0.974
    12   1 H    0.999 --     2 C    0.972
    13   1 H    0.998 --     3 C    0.976
    14   1 H    0.995 --     3 C    0.971
    15   1 H    0.997 --     4 C    0.976
    16   1 H    0.998 --     4 C    0.976
    17   1 H    0.997 --     5 C    0.979
    18   1 H    0.996 --     5 C    0.978
 ---------------------------------------------------------------------------

molecular dipole:
                 x           y           z       tot (Debye)
 q only:       -0.168       1.463      -1.166
   full:       -1.020       1.491      -1.098       5.372

           -------------------------------------------------
          | TOTAL ENERGY              -25.726991892030 Eh   |
          | GRADIENT NORM               0.000465455435 Eh/α |
          | HOMO-LUMO GAP               5.015788413230 eV   |
           -------------------------------------------------

 * finished run on 2023/01/23 at 20:00:09.974
