   * xtb version 6.5.1 (fef0646) compiled by 'conda@b96dff2e9fd6' on 2023-01-04
          program call               : xtb init.xyz --opt -c 1 -u 0 -P 16 --alpb water

   ID    Z sym.   atoms
    1    7 N      1
    2    6 C      2-6
    3   16 S      7
    4    1 H      8-15

      * Solvation model:               ALPB
        Solvent                        water
        Solvent mass                       1.8000E+01 g/mol
          :  Hamiltonian                  GFN2-xTB          :
 * total energy  :   -20.5976447 Eh     change       -0.4184741E-10 Eh
 * total energy  :   -20.5995814 Eh     change       -0.1936743E-02 Eh
 * total energy  :   -20.5998119 Eh     change       -0.2305085E-03 Eh
 * total energy  :   -20.5998639 Eh     change       -0.5201915E-04 Eh
 * total energy  :   -20.5998886 Eh     change       -0.2464620E-04 Eh
 * total energy  :   -20.5999073 Eh     change       -0.1869838E-04 Eh
 * total energy  :   -20.5999226 Eh     change       -0.1530741E-04 Eh
 * total energy  :   -20.5999520 Eh     change       -0.2947300E-04 Eh
 * total energy  :   -20.5999939 Eh     change       -0.4184776E-04 Eh
 * total energy  :   -20.6000104 Eh     change       -0.1650913E-04 Eh
 * total energy  :   -20.6000623 Eh     change       -0.7772186E-05 Eh
 * total energy  :   -20.6000672 Eh     change       -0.4987443E-05 Eh
 * total energy  :   -20.6000732 Eh     change       -0.5963162E-05 Eh
 * total energy  :   -20.6000791 Eh     change       -0.5932618E-05 Eh
 * total energy  :   -20.6000872 Eh     change       -0.8026155E-05 Eh
 * total energy  :   -20.6000936 Eh     change       -0.6396340E-05 Eh
 * total energy  :   -20.6000952 Eh     change       -0.1599502E-05 Eh
 * total energy  :   -20.6000996 Eh     change       -0.4487553E-05 Eh
 * total energy  :   -20.6001011 Eh     change       -0.1404937E-05 Eh
   *** GEOMETRY OPTIMIZATION CONVERGED AFTER 22 ITERATIONS ***

 final structure:
================
15
 xtb: 6.5.1 (fef0646)
N            3.06799630415435       -0.56269982415989       -1.22380499077043
C            2.57424279141455        0.13537571533170       -0.01477666365159
C            2.97688829439268       -0.59297294873217        1.22513349572738
C            3.32141220449674       -0.08718488870165        2.43851685663133
C            3.59685826361419       -1.09409234843333        3.39405169211970
C            3.46310676903152       -2.34835689767985        2.89634948138160
S            2.98340874943556       -2.33696194281310        1.25636801041142
H            2.77649508818997       -0.06871465410643       -2.07518422084284
H            2.69238701057753       -1.51922934668290       -1.24304789994000
H            4.09238563945266       -0.62956558797308       -1.20599871956359
H            1.48384011650944        0.19464911074761       -0.06339530504635
H            2.97237509520279        1.15022342662127        0.02296862818808
H            3.38043428968269        0.96211028096144        2.66106746864681
H            3.88816143925908       -0.89279840408089        4.40948018134453
H            3.61786794458625       -3.28787169029873        3.38973198536403

          :  Hamiltonian                  GFN2-xTB          :
         :: total energy             -20.600101053534 Eh    ::
         :: gradient norm              0.000256168348 Eh/a0 ::
         :: HOMO-LUMO gap              3.932433244535 eV    ::
         :: SCC energy               -20.904927598728 Eh    ::
         :: -> dispersion             -0.010482689408 Eh    ::
         :: -> Gsolv                  -0.121192863669 Eh    ::
         :: repulsion energy           0.304810733997 Eh    ::

    * Orbital Energies and Occupations

         #    Occupation            Energy/Eh            Energy/eV
      -------------------------------------------------------------
         1        2.0000           -0.7413542             -20.1733
       ...           ...                  ...                  ...
         7        2.0000           -0.5888860             -16.0244
         8        2.0000           -0.5783260             -15.7371
         9        2.0000           -0.5566869             -15.1482
        10        2.0000           -0.5516767             -15.0119
        11        2.0000           -0.5254335             -14.2978
        12        2.0000           -0.5035928             -13.7035
        13        2.0000           -0.4822609             -13.1230
        14        2.0000           -0.4797448             -13.0545
        15        2.0000           -0.4708328             -12.8120
        16        2.0000           -0.4632401             -12.6054
        17        2.0000           -0.4545063             -12.3677
        18        2.0000           -0.4030542             -10.9677
        19        2.0000           -0.3958259             -10.7710 (HOMO)
        20                         -0.2513116              -6.8385 (LUMO)
        21                         -0.2122555              -5.7758
        22                         -0.1745373              -4.7494
        23                         -0.1278678              -3.4795
        24                         -0.0423073              -1.1512
        25                         -0.0106926              -0.2910
        26                          0.0213458               0.5808
        27                          0.0305110               0.8302
        28                          0.0692670               1.8849
        29                          0.1004813               2.7342
        30                          0.1261371               3.4324
       ...                                ...                  ...
        41                          0.6961030              18.9419
      -------------------------------------------------------------
                  HL-Gap            0.1445143 Eh            3.9324 eV

     #   Z          covCN         q      C6AA      α(0)
     1   7 N        3.486    -0.164    24.546     7.358
     2   6 C        3.754    -0.045    21.440     6.603
     3   6 C        2.989     0.017    27.628     8.622
     4   6 C        3.112    -0.061    29.350     8.875
     5   6 C        3.130    -0.049    29.006     8.817
     6   6 C        2.936    -0.029    28.724     8.790
     7  16 S        2.340    -0.016   141.735    20.037
     8   1 H        0.859     0.330     0.632     1.245
     9   1 H        0.859     0.316     0.667     1.280
    10   1 H        0.859     0.318     0.662     1.275
    11   1 H        0.924     0.140     1.462     1.891
    12   1 H        0.924     0.135     1.496     1.913
    13   1 H        0.926     0.058     2.223     2.331
    14   1 H        0.926     0.026     2.639     2.540
    15   1 H        0.926     0.025     2.654     2.548

Wiberg/Mayer (AO) data.
largest (>0.10) Wiberg bond orders for each atom

     #   Z sym  total        # sym  WBO       # sym  WBO       # sym  WBO
 ---------------------------------------------------------------------------
     1   7 N    3.647 --     2 C    0.974    10 H    0.885     9 H    0.883
                             8 H    0.878
     2   6 C    3.931 --     3 C    1.026     1 N    0.974    12 H    0.952
                            11 H    0.942
     3   6 C    3.945 --     4 C    1.605     7 S    1.154     2 C    1.026
                             6 C    0.115
     4   6 C    3.987 --     3 C    1.605     5 C    1.266    13 H    0.962
     5   6 C    3.989 --     6 C    1.642     4 C    1.266    14 H    0.965
     6   6 C    3.956 --     5 C    1.642     7 S    1.188    15 H    0.973
                             3 C    0.115
     7  16 S    2.613 --     6 C    1.188     3 C    1.154
     8   1 H    0.891 --     1 N    0.878
     9   1 H    0.900 --     1 N    0.883
    10   1 H    0.899 --     1 N    0.885
    11   1 H    0.980 --     2 C    0.942
    12   1 H    0.982 --     2 C    0.952
    13   1 H    0.997 --     4 C    0.962
    14   1 H    0.999 --     5 C    0.965
    15   1 H    0.999 --     6 C    0.973
 ---------------------------------------------------------------------------

molecular dipole:
                 x           y           z       tot (Debye)
 q only:        5.607      -0.622      -2.470
   full:        5.769      -0.814      -1.779      15.484

           -------------------------------------------------
          | TOTAL ENERGY              -20.600101053534 Eh   |
          | GRADIENT NORM               0.000256168348 Eh/α |
          | HOMO-LUMO GAP               3.932433244535 eV   |
           -------------------------------------------------

 * finished run on 2023/01/24 at 15:18:37.478
