   * xtb version 6.5.1 (fef0646) compiled by 'conda@b96dff2e9fd6' on 2023-01-04
          program call               : xtb init.xyz --opt -c 0 -u 0 -P 16

   ID    Z sym.   atoms
    1    7 N      1
    2    6 C      2, 3
    3    9 F      4
    4   17 Cl     5
    5    1 H      6-12

          :  Hamiltonian                  GFN2-xTB          :
 * total energy  :   -20.0193281 Eh     change       -0.3774403E-09 Eh
 * total energy  :   -20.0255053 Eh     change       -0.6177223E-02 Eh
 * total energy  :   -20.0328723 Eh     change       -0.7366957E-02 Eh
 * total energy  :   -20.0378358 Eh     change       -0.4963491E-02 Eh
 * total energy  :   -20.0410425 Eh     change       -0.3206746E-02 Eh
 * total energy  :   -20.0429815 Eh     change       -0.1938949E-02 Eh
 * total energy  :   -20.0436809 Eh     change       -0.6994572E-03 Eh
 * total energy  :   -20.0440631 Eh     change       -0.3821663E-03 Eh
 * total energy  :   -20.0441647 Eh     change       -0.1016311E-03 Eh
 * total energy  :   -20.0443239 Eh     change       -0.1591227E-03 Eh
 * total energy  :   -20.0451006 Eh     change       -0.1370181E-03 Eh
 * total energy  :   -20.0451628 Eh     change       -0.6227173E-04 Eh
 * total energy  :   -20.0451788 Eh     change       -0.1600133E-04 Eh
 * total energy  :   -20.0451927 Eh     change       -0.1385632E-04 Eh
 * total energy  :   -20.0452048 Eh     change       -0.1208542E-04 Eh
 * total energy  :   -20.0452194 Eh     change       -0.1460715E-04 Eh
 * total energy  :   -20.0452261 Eh     change       -0.6742900E-05 Eh
 * total energy  :   -20.0452321 Eh     change       -0.5940737E-05 Eh
 * total energy  :   -20.0452339 Eh     change       -0.1807635E-05 Eh
   *** GEOMETRY OPTIMIZATION CONVERGED AFTER 22 ITERATIONS ***

 final structure:
================
12
 xtb: 6.5.1 (fef0646)
N            1.28298839799531        0.62109129698668        0.09089181957665
C            2.73184312976614        0.57082343493047       -0.09091156863391
C            3.04779713253652        0.25632814869352       -1.54681054685918
F            2.70282071290917        1.33287778575813       -2.33159153118977
Cl           0.28871710562355       -2.09466005702356       -0.45794272256749
H            1.03763873705568        0.88854361612881        1.03717176034117
H            0.70798388250319       -0.82172611125828       -0.20306465222015
H            0.87348931267220        1.28848434686458       -0.55601885653395
H            3.12989831868683       -0.22917783390288        0.53593474010915
H            3.22372994234990        1.51490347652362        0.18146664370435
H            2.46303350491503       -0.59703519180810       -1.89902985708943
H            4.11710982298674        0.08552708810706       -1.69591522863740

          :  Hamiltonian                  GFN2-xTB          :
         :: total energy             -20.045233873259 Eh    ::
         :: gradient norm              0.000222069385 Eh/a0 ::
         :: HOMO-LUMO gap              9.195026069689 eV    ::
         :: SCC energy               -20.182585097436 Eh    ::
         :: -> dispersion             -0.005715157581 Eh    ::
         :: repulsion energy           0.137341594561 Eh    ::

    * Orbital Energies and Occupations

         #    Occupation            Energy/Eh            Energy/eV
      -------------------------------------------------------------
         1        2.0000           -1.0253770             -27.9019
       ...           ...                  ...                  ...
         5        2.0000           -0.6084801             -16.5576
         6        2.0000           -0.5774362             -15.7128
         7        2.0000           -0.5723095             -15.5733
         8        2.0000           -0.5563547             -15.1392
         9        2.0000           -0.5330340             -14.5046
        10        2.0000           -0.5325493             -14.4914
        11        2.0000           -0.5115836             -13.9209
        12        2.0000           -0.4906503             -13.3513
        13        2.0000           -0.4672114             -12.7135
        14        2.0000           -0.4641530             -12.6302
        15        2.0000           -0.4102615             -11.1638
        16        2.0000           -0.4026988             -10.9580
        17        2.0000           -0.4023401             -10.9482 (HOMO)
        18                         -0.0644291              -1.7532 (LUMO)
        19                          0.0029477               0.0802
        20                          0.0343690               0.9352
        21                          0.0576487               1.5687
        22                          0.0583460               1.5877
        23                          0.0637321               1.7342
        24                          0.0640527               1.7430
        25                          0.0756293               2.0580
        26                          0.0959232               2.6102
        27                          0.1207208               3.2850
        28                          0.1378820               3.7520
       ...                                ...                  ...
        32                          0.2567318               6.9860
      -------------------------------------------------------------
                  HL-Gap            0.3379110 Eh            9.1950 eV

     #   Z          covCN         q      C6AA      α(0)
     1   7 N        2.678    -0.306    27.885     7.843
     2   6 C        3.731     0.000    20.670     6.490
     3   6 C        3.610     0.092    19.550     6.385
     4   9 F        0.784    -0.255    11.816     4.060
     5  17 Cl       0.838    -0.476   114.803    16.391
     6   1 H        0.860     0.169     1.279     1.772
     7   1 H        0.885     0.334     0.619     1.232
     8   1 H        0.860     0.183     1.197     1.714
     9   1 H        0.924     0.064     2.156     2.296
    10   1 H        0.923     0.049     2.338     2.391
    11   1 H        0.924     0.084     1.939     2.178
    12   1 H        0.924     0.063     2.159     2.298

Wiberg/Mayer (AO) data.
largest (>0.10) Wiberg bond orders for each atom

     #   Z sym  total        # sym  WBO       # sym  WBO       # sym  WBO
 ---------------------------------------------------------------------------
     1   7 N    3.224 --     2 C    1.013     6 H    0.958     8 H    0.953
                             7 H    0.192
     2   6 C    3.980 --     1 N    1.013     3 C    1.005     9 H    0.972
                            10 H    0.969
     3   6 C    3.899 --     2 C    1.005    12 H    0.970    11 H    0.965
                             4 F    0.937
     4   9 F    0.997 --     3 C    0.937
     5  17 Cl   0.777 --     7 H    0.693
     6   1 H    0.971 --     1 N    0.958
     7   1 H    0.889 --     5 Cl   0.693     1 N    0.192
     8   1 H    0.967 --     1 N    0.953
     9   1 H    0.996 --     2 C    0.972
    10   1 H    0.998 --     2 C    0.969
    11   1 H    0.993 --     3 C    0.965
    12   1 H    0.996 --     3 C    0.970
 ---------------------------------------------------------------------------

molecular dipole:
                 x           y           z       tot (Debye)
 q only:        0.862       1.165       0.801
   full:        0.777       0.998       0.885       3.924

           -------------------------------------------------
          | TOTAL ENERGY              -20.045233873259 Eh   |
          | GRADIENT NORM               0.000222069385 Eh/α |
          | HOMO-LUMO GAP               9.195026069689 eV   |
           -------------------------------------------------

 * finished run on 2023/01/23 at 14:22:43.642
