   * xtb version 6.5.1 (fef0646) compiled by 'conda@b96dff2e9fd6' on 2023-01-04
          program call               : xtb init.xyz --opt -c 0 -u 0 -P 16

   ID    Z sym.   atoms
    1    7 N      1, 5
    2    6 C      2-4
    3   17 Cl     6
    4    1 H      7-13

          :  Hamiltonian                  GFN2-xTB          :
 * total energy  :   -20.2842428 Eh     change       -0.9386767E-09 Eh
 * total energy  :   -20.3201736 Eh     change       -0.3593085E-01 Eh
 * total energy  :   -20.3252247 Eh     change       -0.5051076E-02 Eh
 * total energy  :   -20.3290902 Eh     change       -0.3865443E-02 Eh
 * total energy  :   -20.3310750 Eh     change       -0.1984787E-02 Eh
 * total energy  :   -20.3332015 Eh     change       -0.2126501E-02 Eh
 * total energy  :   -20.3344770 Eh     change       -0.1275497E-02 Eh
 * total energy  :   -20.3358550 Eh     change       -0.1378000E-02 Eh
 * total energy  :   -20.3361899 Eh     change       -0.3349761E-03 Eh
 * total energy  :   -20.3363986 Eh     change       -0.2086484E-03 Eh
 * total energy  :   -20.3364765 Eh     change       -0.7790252E-04 Eh
 * total energy  :   -20.3365578 Eh     change       -0.8131150E-04 Eh
 * total energy  :   -20.3366055 Eh     change       -0.4770010E-04 Eh
 * total energy  :   -20.3366364 Eh     change       -0.3086586E-04 Eh
 * total energy  :   -20.3366439 Eh     change       -0.7523179E-05 Eh
 * total energy  :   -20.3366462 Eh     change       -0.2344809E-05 Eh
   *** GEOMETRY OPTIMIZATION CONVERGED AFTER 16 ITERATIONS ***

 final structure:
================
13
 xtb: 6.5.1 (fef0646)
N            1.04289734509255       -0.37956120510368        0.08831574392724
C            2.49545708317021       -0.23139949375107        0.09199399789648
C            2.96750911196382        0.16994315173499       -1.31096518303879
C            4.39810641427453        0.33004978624179       -1.34337086996895
N            5.53516404160081        0.44158955237240       -1.35413809755930
Cl          -0.17361732300530        2.03104615863963       -1.11350254200021
H            0.68592075021235       -0.52127521459338        1.02606862666529
H            0.75722104912057       -1.16291711980521       -0.49062372581227
H            0.37010707852343        0.92278022941725       -0.53816100777304
H            3.01233804058890       -1.14997824072632        0.40539016648360
H            2.74997376016620        0.56084361288994        0.79986670004317
H            2.49462500085105        1.11145756586302       -1.60037515519201
H            2.68719764744106       -0.59625878317926       -2.03941865367124

          :  Hamiltonian                  GFN2-xTB          :
         :: total energy             -20.336646224987 Eh    ::
         :: gradient norm              0.000432418686 Eh/a0 ::
         :: HOMO-LUMO gap              5.257059537711 eV    ::
         :: SCC energy               -20.593143268627 Eh    ::
         :: -> dispersion             -0.007267908709 Eh    ::
         :: repulsion energy           0.256483608027 Eh    ::

    * Orbital Energies and Occupations

         #    Occupation            Energy/Eh            Energy/eV
      -------------------------------------------------------------
         1        2.0000           -1.0330731             -28.1114
       ...           ...                  ...                  ...
         6        2.0000           -0.5826180             -15.8538
         7        2.0000           -0.5736682             -15.6103
         8        2.0000           -0.5501786             -14.9711
         9        2.0000           -0.5331126             -14.5067
        10        2.0000           -0.5237773             -14.2527
        11        2.0000           -0.5090799             -13.8528
        12        2.0000           -0.4942876             -13.4503
        13        2.0000           -0.4751095             -12.9284
        14        2.0000           -0.4666331             -12.6977
        15        2.0000           -0.4345683             -11.8252
        16        2.0000           -0.4171703             -11.3518
        17        2.0000           -0.4097123             -11.1488
        18        2.0000           -0.4095514             -11.1445 (HOMO)
        19                         -0.2163581              -5.8874 (LUMO)
        20                         -0.2102177              -5.7203
        21                         -0.0710528              -1.9334
        22                          0.0024220               0.0659
        23                          0.0500336               1.3615
        24                          0.0508587               1.3839
        25                          0.0559454               1.5224
        26                          0.0563585               1.5336
        27                          0.0763715               2.0782
        28                          0.0841617               2.2902
        29                          0.1076757               2.9300
       ...                                ...                  ...
        36                          1.1395200              31.0079
      -------------------------------------------------------------
                  HL-Gap            0.1931934 Eh            5.2571 eV

     #   Z          covCN         q      C6AA      α(0)
     1   7 N        2.669    -0.310    27.974     7.855
     2   6 C        3.737     0.018    20.357     6.438
     3   6 C        3.805    -0.071    21.852     6.655
     4   6 C        1.898     0.115    28.270     8.587
     5   7 N        0.911    -0.228    25.993     7.374
     6  17 Cl       0.839    -0.470   114.609    16.377
     7   1 H        0.860     0.169     1.277     1.770
     8   1 H        0.860     0.169     1.280     1.772
     9   1 H        0.876     0.335     0.617     1.230
    10   1 H        0.923     0.034     2.527     2.486
    11   1 H        0.924     0.060     2.197     2.318
    12   1 H        0.924     0.102     1.765     2.077
    13   1 H        0.924     0.077     2.014     2.219

Wiberg/Mayer (AO) data.
largest (>0.10) Wiberg bond orders for each atom

     #   Z sym  total        # sym  WBO       # sym  WBO       # sym  WBO
 ---------------------------------------------------------------------------
     1   7 N    3.217 --     2 C    1.011     8 H    0.958     7 H    0.957
                             9 H    0.184
     2   6 C    3.976 --     1 N    1.011     3 C    0.979    11 H    0.975
                            10 H    0.973
     3   6 C    3.993 --     4 C    1.055     2 C    0.979    13 H    0.943
                            12 H    0.936
     4   6 C    3.948 --     5 N    2.854     3 C    1.055
     5   7 N    3.009 --     4 C    2.854
     6  17 Cl   0.782 --     9 H    0.699
     7   1 H    0.970 --     1 N    0.957
     8   1 H    0.971 --     1 N    0.958
     9   1 H    0.888 --     6 Cl   0.699     1 N    0.184
    10   1 H    0.999 --     2 C    0.973
    11   1 H    0.996 --     2 C    0.975
    12   1 H    0.990 --     3 C    0.936
    13   1 H    0.994 --     3 C    0.943
 ---------------------------------------------------------------------------

molecular dipole:
                 x           y           z       tot (Debye)
 q only:       -0.125      -1.569       0.752
   full:       -0.826      -1.549       0.742       4.844

           -------------------------------------------------
          | TOTAL ENERGY              -20.336646224987 Eh   |
          | GRADIENT NORM               0.000432418686 Eh/α |
          | HOMO-LUMO GAP               5.257059537711 eV   |
           -------------------------------------------------

 * finished run on 2023/01/23 at 13:48:28.489
