   * xtb version 6.5.1 (fef0646) compiled by 'conda@b96dff2e9fd6' on 2023-01-04
          program call               : xtb init.xyz --opt -c 0 -u 0 -P 16 --alpb water

   ID    Z sym.   atoms
    1    7 N      1
    2    6 C      2-13
    3   17 Cl     14
    4    1 H      15-42

      * Solvation model:               ALPB
        Solvent                        water
        Solvent mass                       1.8000E+01 g/mol
          :  Hamiltonian                  GFN2-xTB          :
 * total energy  :   -47.5006492 Eh     change       -0.1388329E-08 Eh
 * total energy  :   -47.5052704 Eh     change       -0.4621152E-02 Eh
 * total energy  :   -47.5065367 Eh     change       -0.1266331E-02 Eh
 * total energy  :   -47.5072787 Eh     change       -0.7420431E-03 Eh
 * total energy  :   -47.5076528 Eh     change       -0.3740160E-03 Eh
 * total energy  :   -47.5082225 Eh     change       -0.5697815E-03 Eh
 * total energy  :   -47.5087374 Eh     change       -0.5148392E-03 Eh
 * total energy  :   -47.5089733 Eh     change       -0.2359064E-03 Eh
 * total energy  :   -47.5090505 Eh     change       -0.7721256E-04 Eh
 * total energy  :   -47.5090839 Eh     change       -0.3342435E-04 Eh
 * total energy  :   -47.5092094 Eh     change       -0.2027112E-04 Eh
 * total energy  :   -47.5092277 Eh     change       -0.1828556E-04 Eh
 * total energy  :   -47.5092478 Eh     change       -0.2003781E-04 Eh
 * total energy  :   -47.5092672 Eh     change       -0.1939894E-04 Eh
 * total energy  :   -47.5092798 Eh     change       -0.1264619E-04 Eh
 * total energy  :   -47.5092896 Eh     change       -0.9833893E-05 Eh
 * total energy  :   -47.5092949 Eh     change       -0.5206913E-05 Eh
 * total energy  :   -47.5093025 Eh     change       -0.7699230E-05 Eh
 * total energy  :   -47.5093074 Eh     change       -0.4829570E-05 Eh
   *** GEOMETRY OPTIMIZATION CONVERGED AFTER 24 ITERATIONS ***

 final structure:
================
42
 xtb: 6.5.1 (fef0646)
N            2.84109126558448       -2.13286360340809       -2.16494102247711
C            4.30694685733648       -1.94921479044256       -2.16357744074990
C            4.72845488337276       -1.02503397284940       -1.02851464382844
C            4.42429820243965       -1.56289109331277        0.37275662161203
C            5.02865211244684       -2.93253943805526        0.69233196471944
C            6.55498057059805       -2.94993210365083        0.62867612987531
C            7.11903441253605       -4.30041044636800        1.06546370361580
C            8.64425913344139       -4.33743253467803        1.00407929130865
C            9.19632189574352       -5.69655190460162        1.42746017942653
C           10.72177083370447       -5.74303144425031        1.38425251325999
C           11.26122318526711       -7.11145413191528        1.79395788261029
C           12.78694655216076       -7.16493701713889        1.76780398478662
C           13.31216191072479       -8.53896498514183        2.16719297963250
Cl           1.37091378609416        0.55221414839323       -2.20187367931404
H            2.53078619956920       -2.67420518393107       -2.97387957155027
H            2.35835365509052       -1.19935808616677       -2.19752787763924
H            2.53858418454962       -2.59146092352424       -1.30307518972324
H            4.59813782889044       -1.49496807330339       -3.10979690037276
H            4.79169574646063       -2.92083807708939       -2.07044138357357
H            4.20259810585987       -0.07598728589991       -1.14981942016110
H            5.79510543412965       -0.82496424420297       -1.11891137587241
H            3.34355104320611       -1.60134138901274        0.52214541847149
H            4.80788048486423       -0.83892192513924        1.09478982483847
H            4.63719315986291       -3.69654065685290        0.02017190220829
H            4.72120525702234       -3.20853040957356        1.70386484425452
H            6.95365385845990       -2.16651185181575        1.27729261611658
H            6.89080926535090       -2.74066520932170       -0.38771919747388
H            6.71764142268693       -5.08702657212279        0.42248895984675
H            6.79724323382684       -4.51520836703183        2.08740451246494
H            9.05273646067774       -3.56252490090261        1.65716946404601
H            8.97324489876816       -4.11658562105953       -0.01393878166968
H            8.79554878429603       -6.46990751570639        0.76801178904864
H            8.85952956572372       -5.92239508760732        2.44213217282233
H           11.12658811807814       -4.97998470068655        2.05351650995650
H           11.06336277310658       -5.50851274864168        0.37328183442687
H           10.86385237573443       -7.87244930152819        1.11811235019191
H           10.91104908678014       -7.35015958094680        2.80114329953265
H           13.18563982916242       -6.41125882904840        2.45067653126980
H           13.13918941516484       -6.91968192072230        0.76332746404606
H           12.98364808136520       -8.79434913234940        3.17221874804692
H           14.39904968168624       -8.55492215122887        2.14632229487482
H           12.94362644817498       -9.30046693716234        1.48355069709428

          :  Hamiltonian                  GFN2-xTB          :
         :: total energy             -47.509307383919 Eh    ::
         :: gradient norm              0.000399058353 Eh/a0 ::
         :: HOMO-LUMO gap             10.253910101128 eV    ::
         :: SCC energy               -48.133755598553 Eh    ::
         :: -> dispersion             -0.028289963769 Eh    ::
         :: -> Gsolv                  -0.071760735241 Eh    ::
         :: repulsion energy           0.624634587887 Eh    ::

    * Orbital Energies and Occupations

         #    Occupation            Energy/Eh            Energy/eV
      -------------------------------------------------------------
         1        2.0000           -1.0053661             -27.3574
       ...           ...                  ...                  ...
        32        2.0000           -0.4390678             -11.9476
        33        2.0000           -0.4329311             -11.7807
        34        2.0000           -0.4269438             -11.6177
        35        2.0000           -0.4260973             -11.5947
        36        2.0000           -0.4246584             -11.5555
        37        2.0000           -0.4185666             -11.3898
        38        2.0000           -0.4178243             -11.3696
        39        2.0000           -0.4146549             -11.2833
        40        2.0000           -0.4123187             -11.2198
        41        2.0000           -0.4074638             -11.0877
        42        2.0000           -0.4016564             -10.9296
        43        2.0000           -0.3996404             -10.8748
        44        2.0000           -0.3992155             -10.8632 (HOMO)
        45                         -0.0223912              -0.6093 (LUMO)
        46                          0.0401907               1.0936
        47                          0.0774029               2.1062
        48                          0.0857954               2.3346
        49                          0.0937742               2.5517
        50                          0.1010581               2.7499
        51                          0.1057477               2.8775
        52                          0.1123783               3.0580
        53                          0.1153125               3.1378
        54                          0.1178050               3.2056
        55                          0.1180996               3.2137
       ...                                ...                  ...
        89                          0.3286119               8.9420
      -------------------------------------------------------------
                  HL-Gap            0.3768243 Eh           10.2539 eV

     #   Z          covCN         q      C6AA      α(0)
     1   7 N        3.484    -0.163    24.515     7.354
     2   6 C        3.731    -0.026    21.127     6.561
     3   6 C        3.802    -0.077    21.972     6.674
     4   6 C        3.801    -0.068    21.801     6.648
     5   6 C        3.802    -0.068    21.811     6.649
     6   6 C        3.802    -0.066    21.760     6.641
     7   6 C        3.803    -0.064    21.724     6.636
     8   6 C        3.803    -0.063    21.704     6.633
     9   6 C        3.803    -0.062    21.695     6.631
    10   6 C        3.803    -0.062    21.690     6.631
    11   6 C        3.803    -0.063    21.706     6.633
    12   6 C        3.801    -0.058    21.611     6.619
    13   6 C        3.752    -0.111    22.681     6.791
    14  17 Cl       0.046    -0.949   124.941    17.012
    15   1 H        0.860     0.302     0.707     1.317
    16   1 H        0.903     0.292     0.733     1.339
    17   1 H        0.859     0.287     0.753     1.359
    18   1 H        0.925     0.096     1.820     2.110
    19   1 H        0.925     0.106     1.735     2.060
    20   1 H        0.924     0.054     2.269     2.356
    21   1 H        0.925     0.062     2.175     2.306
    22   1 H        0.924     0.042     2.419     2.432
    23   1 H        0.924     0.034     2.528     2.487
    24   1 H        0.924     0.048     2.344     2.394
    25   1 H        0.924     0.032     2.556     2.500
    26   1 H        0.924     0.028     2.620     2.531
    27   1 H        0.924     0.042     2.429     2.437
    28   1 H        0.924     0.036     2.506     2.476
    29   1 H        0.924     0.028     2.621     2.532
    30   1 H        0.924     0.027     2.623     2.533
    31   1 H        0.924     0.033     2.545     2.495
    32   1 H        0.924     0.032     2.552     2.498
    33   1 H        0.924     0.029     2.603     2.523
    34   1 H        0.924     0.028     2.615     2.529
    35   1 H        0.924     0.031     2.579     2.512
    36   1 H        0.924     0.032     2.560     2.502
    37   1 H        0.924     0.030     2.584     2.514
    38   1 H        0.924     0.029     2.599     2.521
    39   1 H        0.924     0.030     2.581     2.513
    40   1 H        0.925     0.036     2.505     2.475
    41   1 H        0.925     0.036     2.500     2.473
    42   1 H        0.925     0.037     2.493     2.469

Wiberg/Mayer (AO) data.
largest (>0.10) Wiberg bond orders for each atom

     #   Z sym  total        # sym  WBO       # sym  WBO       # sym  WBO
 ---------------------------------------------------------------------------
     1   7 N    3.649 --     2 C    0.966    17 H    0.899    15 H    0.895
                            16 H    0.834
     2   6 C    3.930 --     3 C    1.011    18 H    0.969     1 N    0.966
                            19 H    0.964
     3   6 C    3.992 --     2 C    1.011     4 C    1.006    20 H    0.973
                            21 H    0.970
     4   6 C    3.995 --     5 C    1.007     3 C    1.006    23 H    0.976
                            22 H    0.973
     5   6 C    3.996 --     6 C    1.008     4 C    1.007    25 H    0.977
                            24 H    0.973
     6   6 C    3.996 --     5 C    1.008     7 C    1.007    26 H    0.978
                            27 H    0.975
     7   6 C    3.997 --     8 C    1.007     6 C    1.007    29 H    0.978
                            28 H    0.977
     8   6 C    3.996 --     9 C    1.007     7 C    1.007    30 H    0.978
                            31 H    0.977
     9   6 C    3.997 --    10 C    1.007     8 C    1.007    33 H    0.978
                            32 H    0.977
    10   6 C    3.997 --    11 C    1.007     9 C    1.007    34 H    0.978
                            35 H    0.977
    11   6 C    3.997 --    12 C    1.008    10 C    1.007    37 H    0.977
                            36 H    0.977
    12   6 C    3.997 --    13 C    1.019    11 C    1.008    38 H    0.979
                            39 H    0.979
    13   6 C    3.996 --    12 C    1.019    40 H    0.988    42 H    0.988
                            41 H    0.987
    14  17 Cl   0.100
    15   1 H    0.909 --     1 N    0.895
    16   1 H    0.914 --     1 N    0.834
    17   1 H    0.917 --     1 N    0.899
    18   1 H    0.991 --     2 C    0.969
    19   1 H    0.989 --     2 C    0.964
    20   1 H    0.997 --     3 C    0.973
    21   1 H    0.996 --     3 C    0.970
    22   1 H    0.998 --     4 C    0.973
    23   1 H    0.999 --     4 C    0.976
    24   1 H    0.998 --     5 C    0.973
    25   1 H    0.999 --     5 C    0.977
    26   1 H    0.999 --     6 C    0.978
    27   1 H    0.998 --     6 C    0.975
    28   1 H    0.999 --     7 C    0.977
    29   1 H    0.999 --     7 C    0.978
    30   1 H    0.999 --     8 C    0.978
    31   1 H    0.999 --     8 C    0.977
    32   1 H    0.999 --     9 C    0.977
    33   1 H    0.999 --     9 C    0.978
    34   1 H    0.999 --    10 C    0.978
    35   1 H    0.999 --    10 C    0.977
    36   1 H    0.999 --    11 C    0.977
    37   1 H    0.999 --    11 C    0.977
    38   1 H    0.999 --    12 C    0.979
    39   1 H    0.999 --    12 C    0.979
    40   1 H    0.999 --    13 C    0.988
    41   1 H    0.998 --    13 C    0.987
    42   1 H    0.999 --    13 C    0.988
 ---------------------------------------------------------------------------

molecular dipole:
                 x           y           z       tot (Debye)
 q only:        2.808      -4.735       0.027
   full:        2.363      -4.143       0.083      12.124

           -------------------------------------------------
          | TOTAL ENERGY              -47.509307383919 Eh   |
          | GRADIENT NORM               0.000399058353 Eh/α |
          | HOMO-LUMO GAP              10.253910101128 eV   |
           -------------------------------------------------

 * finished run on 2023/01/24 at 14:57:53.250
