   * xtb version 6.5.1 (fef0646) compiled by 'conda@b96dff2e9fd6' on 2023-01-04
          program call               : xtb init.xyz --opt -c 1 -u 0 -P 16

   ID    Z sym.   atoms
    1    7 N      1, 5
    2    6 C      2-4
    3    1 H      6-12

          :  Hamiltonian                  GFN2-xTB          :
 * total energy  :   -15.3370084 Eh     change       -0.8520651E-10 Eh
 * total energy  :   -15.3388099 Eh     change       -0.1801504E-02 Eh
 * total energy  :   -15.3391325 Eh     change       -0.3225976E-03 Eh
 * total energy  :   -15.3391378 Eh     change       -0.5288695E-05 Eh
 * total energy  :   -15.3393861 Eh     change       -0.2483750E-03 Eh
 * total energy  :   -15.3394334 Eh     change       -0.4729529E-04 Eh
 * total energy  :   -15.3394976 Eh     change       -0.6415523E-04 Eh
 * total energy  :   -15.3395202 Eh     change       -0.2265176E-04 Eh
 * total energy  :   -15.3395312 Eh     change       -0.1099464E-04 Eh
 * total energy  :   -15.3395347 Eh     change       -0.3446789E-05 Eh
   *** GEOMETRY OPTIMIZATION CONVERGED AFTER 10 ITERATIONS ***

 final structure:
================
12
 xtb: 6.5.1 (fef0646)
N            0.92297551534571       -0.02491712429673       -0.01131778948704
C            2.41613576488372       -0.08829614903794       -0.06787980110230
C            2.92899303142126       -1.14915283771237        0.90747821171107
C            2.34536121778583       -0.91192167935546        2.21081542904767
N            1.78975836695046       -0.66791562467750        3.17729209517616
H            0.55577827490303        0.74984009870610       -0.57912039363694
H            0.63314370278886        0.11220403441901        0.97341557609992
H            0.50348437517479       -0.90422104112028       -0.34464525574159
H            2.80797458011367        0.89288885448677        0.20857740946719
H            2.72938871173557       -0.32069817789148       -1.08652748783309
H            4.01676767704297       -1.09037105104834        0.98407457149381
H            2.67051878185414       -2.16067930247175        0.58287743480518

          :  Hamiltonian                  GFN2-xTB          :
         :: total energy             -15.339534669130 Eh    ::
         :: gradient norm              0.000558007427 Eh/a0 ::
         :: HOMO-LUMO gap              5.631424704619 eV    ::
         :: SCC energy               -15.602877690437 Eh    ::
         :: -> dispersion             -0.005050060138 Eh    ::
         :: repulsion energy           0.263337128087 Eh    ::

    * Orbital Energies and Occupations

         #    Occupation            Energy/Eh            Energy/eV
      -------------------------------------------------------------
         1        2.0000           -0.9176160             -24.9696
         2        2.0000           -0.8674522             -23.6046
         3        2.0000           -0.8337495             -22.6875
         4        2.0000           -0.8216021             -22.3569
         5        2.0000           -0.8102080             -22.0469
         6        2.0000           -0.8042851             -21.8857
         7        2.0000           -0.7682781             -20.9059
         8        2.0000           -0.7264226             -19.7670
         9        2.0000           -0.7009158             -19.0729
        10        2.0000           -0.6943615             -18.8945
        11        2.0000           -0.6729832             -18.3128
        12        2.0000           -0.6402238             -17.4214
        13        2.0000           -0.6285970             -17.1050
        14        2.0000           -0.5837698             -15.8852 (HOMO)
        15                         -0.3768188             -10.2538 (LUMO)
        16                         -0.3663400              -9.9686
        17                         -0.2828340              -7.6963
        18                         -0.1756464              -4.7796
        19                         -0.1217267              -3.3124
        20                         -0.1185221              -3.2251
        21                         -0.0821754              -2.2361
        22                         -0.0489004              -1.3306
        23                         -0.0300937              -0.8189
        24                         -0.0082516              -0.2245
        25                          0.0436191               1.1869
       ...                                ...                  ...
        27                          0.9795418              26.6547
      -------------------------------------------------------------
                  HL-Gap            0.2069510 Eh            5.6314 eV

     #   Z          covCN         q      C6AA      α(0)
     1   7 N        3.482    -0.129    23.786     7.244
     2   6 C        3.740    -0.026    21.113     6.556
     3   6 C        3.804    -0.078    21.983     6.675
     4   6 C        1.902     0.104    28.541     8.628
     5   7 N        0.911    -0.179    24.889     7.216
     6   1 H        0.859     0.277     0.786     1.389
     7   1 H        0.858     0.283     0.766     1.371
     8   1 H        0.859     0.276     0.791     1.393
     9   1 H        0.924     0.119     1.625     1.993
    10   1 H        0.924     0.118     1.631     1.997
    11   1 H        0.924     0.130     1.533     1.937
    12   1 H        0.924     0.106     1.729     2.056

Wiberg/Mayer (AO) data.
largest (>0.10) Wiberg bond orders for each atom

     #   Z sym  total        # sym  WBO       # sym  WBO       # sym  WBO
 ---------------------------------------------------------------------------
     1   7 N    3.674 --     2 C    0.936     6 H    0.909     8 H    0.909
                             7 H    0.893
     2   6 C    3.899 --     3 C    0.992     9 H    0.965    10 H    0.965
                             1 N    0.936
     3   6 C    3.982 --     4 C    1.042     2 C    0.992    12 H    0.941
                            11 H    0.930
     4   6 C    3.953 --     5 N    2.870     3 C    1.042
     5   7 N    3.028 --     4 C    2.870
     6   1 H    0.923 --     1 N    0.909
     7   1 H    0.920 --     1 N    0.893
     8   1 H    0.924 --     1 N    0.909
     9   1 H    0.986 --     2 C    0.965
    10   1 H    0.986 --     2 C    0.965
    11   1 H    0.983 --     3 C    0.930
    12   1 H    0.989 --     3 C    0.941
 ---------------------------------------------------------------------------

molecular dipole:
                 x           y           z       tot (Debye)
 q only:        2.732      -0.364      -0.570
   full:        2.764      -0.445      -0.985       7.543

           -------------------------------------------------
          | TOTAL ENERGY              -15.339534669130 Eh   |
          | GRADIENT NORM               0.000558007427 Eh/α |
          | HOMO-LUMO GAP               5.631424704619 eV   |
           -------------------------------------------------

 * finished run on 2023/01/23 at 13:48:40.562
