   * xtb version 6.5.1 (fef0646) compiled by 'conda@b96dff2e9fd6' on 2023-01-04
          program call               : xtb init.xyz --opt -c 0 -u 0 -P 16 --alpb water

   ID    Z sym.   atoms
    1    7 N      1
    2    6 C      2-7
    3   16 S      8
    4   17 Cl     9
    5    1 H      10-19

      * Solvation model:               ALPB
        Solvent                        water
        Solvent mass                       1.8000E+01 g/mol
          :  Hamiltonian                  GFN2-xTB          :
 * total energy  :   -28.6710369 Eh     change       -0.1201350E-09 Eh
 * total energy  :   -28.6764007 Eh     change       -0.5363757E-02 Eh
 * total energy  :   -28.6778964 Eh     change       -0.1495723E-02 Eh
 * total energy  :   -28.6783741 Eh     change       -0.4777266E-03 Eh
 * total energy  :   -28.6786666 Eh     change       -0.2924307E-03 Eh
 * total energy  :   -28.6789293 Eh     change       -0.2627403E-03 Eh
 * total energy  :   -28.6791938 Eh     change       -0.2644511E-03 Eh
 * total energy  :   -28.6792946 Eh     change       -0.1008850E-03 Eh
 * total energy  :   -28.6793670 Eh     change       -0.7238532E-04 Eh
 * total energy  :   -28.6794068 Eh     change       -0.3976607E-04 Eh
 * total energy  :   -28.6799495 Eh     change       -0.1990722E-04 Eh
 * total energy  :   -28.6799667 Eh     change       -0.1724556E-04 Eh
 * total energy  :   -28.6799788 Eh     change       -0.1210262E-04 Eh
 * total energy  :   -28.6799874 Eh     change       -0.8627958E-05 Eh
 * total energy  :   -28.6799936 Eh     change       -0.6176135E-05 Eh
 * total energy  :   -28.6799989 Eh     change       -0.5247705E-05 Eh
 * total energy  :   -28.6800039 Eh     change       -0.5013541E-05 Eh
 * total energy  :   -28.6800090 Eh     change       -0.5165680E-05 Eh
 * total energy  :   -28.6800139 Eh     change       -0.4881290E-05 Eh
   *** GEOMETRY OPTIMIZATION CONVERGED AFTER 33 ITERATIONS ***

 final structure:
================
19
 xtb: 6.5.1 (fef0646)
N            0.97092724020259       -0.21209829008853        0.27919668262400
C            2.44268094021819       -0.19814986475812        0.20122734296518
C            3.05844126197192       -1.08015388377872        1.29246205432213
C            4.54417810717725       -1.09847950439938        1.16679498272442
C            5.47210613561533       -0.43487424381190        1.90496729724972
C            6.79844079687105       -0.66423185600270        1.46871930003992
C            6.86039983656230       -1.49537703399779        0.39970619385521
S            5.30230102224321       -2.01954161147592       -0.09846395038538
Cl          -0.14717922458946        1.77821056519263       -1.73019089831064
H            0.56482307567958        0.44966102010045       -0.43250781022941
H            0.64943554074855        0.09995734264377        1.19885137842319
H            0.60098145382249       -1.14597360479234        0.08683447454168
H            2.78890891020494        0.82971309150114        0.30647588361536
H            2.74710638682605       -0.55609185367447       -0.78234462947445
H            2.68121658267724       -2.09901366292602        1.19483203484042
H            2.79991510130417       -0.69525918990632        2.27906401254479
H            5.22810571609236        0.19641762050495        2.73995986514915
H            7.66490679490238       -0.22728888187054        1.93176721035891
H            7.72347432146923       -1.83950615846045       -0.13464142485384

          :  Hamiltonian                  GFN2-xTB          :
         :: total energy             -28.680013927313 Eh    ::
         :: gradient norm              0.000178159900 Eh/a0 ::
         :: HOMO-LUMO gap              3.925890933343 eV    ::
         :: SCC energy               -29.030480672411 Eh    ::
         :: -> dispersion             -0.014346750117 Eh    ::
         :: -> Gsolv                  -0.072877018735 Eh    ::
         :: repulsion energy           0.350485836204 Eh    ::

    * Orbital Energies and Occupations

         #    Occupation            Energy/Eh            Energy/eV
      -------------------------------------------------------------
         1        2.0000           -1.0061835             -27.3796
       ...           ...                  ...                  ...
        14        2.0000           -0.5020445             -13.6613
        15        2.0000           -0.4828066             -13.1378
        16        2.0000           -0.4673914             -12.7184
        17        2.0000           -0.4639040             -12.6235
        18        2.0000           -0.4616813             -12.5630
        19        2.0000           -0.4581598             -12.4672
        20        2.0000           -0.4441582             -12.0862
        21        2.0000           -0.4354800             -11.8500
        22        2.0000           -0.4037884             -10.9876
        23        2.0000           -0.3999424             -10.8830
        24        2.0000           -0.3999207             -10.8824
        25        2.0000           -0.3910197             -10.6402
        26        2.0000           -0.3826014             -10.4111 (HOMO)
        27                         -0.2383276              -6.4852 (LUMO)
        28                         -0.1972137              -5.3665
        29                         -0.1625920              -4.4244
        30                         -0.1124080              -3.0588
        31                         -0.0247224              -0.6727
        32                          0.0027277               0.0742
        33                          0.0275659               0.7501
        34                          0.0382601               1.0411
        35                          0.0813543               2.2138
        36                          0.0938647               2.5542
        37                          0.1166782               3.1750
       ...                                ...                  ...
        56                          0.7045026              19.1705
      -------------------------------------------------------------
                  HL-Gap            0.1442738 Eh            3.9259 eV

     #   Z          covCN         q      C6AA      α(0)
     1   7 N        3.483    -0.166    24.586     7.364
     2   6 C        3.735    -0.022    21.047     6.547
     3   6 C        3.827    -0.088    22.162     6.699
     4   6 C        2.989     0.024    27.451     8.595
     5   6 C        3.119    -0.065    29.423     8.884
     6   6 C        3.118    -0.053    29.133     8.841
     7   6 C        2.939    -0.030    28.743     8.793
     8  16 S        2.337    -0.052   143.225    20.142
     9  17 Cl       0.060    -0.945   124.798    17.002
    10   1 H        0.916     0.297     0.719     1.326
    11   1 H        0.859     0.300     0.714     1.324
    12   1 H        0.859     0.301     0.709     1.319
    13   1 H        0.925     0.098     1.804     2.100
    14   1 H        0.925     0.101     1.773     2.082
    15   1 H        0.924     0.091     1.871     2.139
    16   1 H        0.925     0.085     1.924     2.169
    17   1 H        0.926     0.050     2.319     2.381
    18   1 H        0.926     0.035     2.518     2.481
    19   1 H        0.926     0.038     2.477     2.461

Wiberg/Mayer (AO) data.
largest (>0.10) Wiberg bond orders for each atom

     #   Z sym  total        # sym  WBO       # sym  WBO       # sym  WBO
 ---------------------------------------------------------------------------
     1   7 N    3.645 --     2 C    0.973    11 H    0.895    12 H    0.895
                            10 H    0.827
     2   6 C    3.933 --     3 C    0.990     1 N    0.973    13 H    0.969
                            14 H    0.967
     3   6 C    3.988 --     4 C    1.023     2 C    0.990    16 H    0.964
                            15 H    0.961
     4   6 C    3.947 --     5 C    1.610     8 S    1.154     3 C    1.023
                             7 C    0.115
     5   6 C    3.985 --     4 C    1.610     6 C    1.263    17 H    0.963
     6   6 C    3.988 --     7 C    1.639     5 C    1.263    18 H    0.965
     7   6 C    3.949 --     6 C    1.639     8 S    1.186    19 H    0.972
                             4 C    0.115
     8  16 S    2.600 --     7 C    1.186     4 C    1.154
     9  17 Cl   0.106
    10   1 H    0.911 --     1 N    0.827
    11   1 H    0.910 --     1 N    0.895
    12   1 H    0.909 --     1 N    0.895
    13   1 H    0.990 --     2 C    0.969
    14   1 H    0.990 --     2 C    0.967
    15   1 H    0.992 --     3 C    0.961
    16   1 H    0.992 --     3 C    0.964
    17   1 H    0.997 --     5 C    0.963
    18   1 H    0.999 --     6 C    0.965
    19   1 H    0.998 --     7 C    0.972
 ---------------------------------------------------------------------------

molecular dipole:
                 x           y           z       tot (Debye)
 q only:        1.836      -3.466       3.783
   full:        1.800      -2.863       3.437      12.256

           -------------------------------------------------
          | TOTAL ENERGY              -28.680013927313 Eh   |
          | GRADIENT NORM               0.000178159900 Eh/α |
          | HOMO-LUMO GAP               3.925890933343 eV   |
           -------------------------------------------------

 * finished run on 2023/01/24 at 15:50:31.549
