   * xtb version 6.5.1 (fef0646) compiled by 'conda@b96dff2e9fd6' on 2023-01-04
          program call               : xtb init.xyz --opt -c 0 -u 0 -P 16 --alpb water

   ID    Z sym.   atoms
    1    7 N      1
    2    6 C      2-9
    3   17 Cl     10
    4    1 H      11-22

      * Solvation model:               ALPB
        Solvent                        water
        Solvent mass                       1.8000E+01 g/mol
          :  Hamiltonian                  GFN2-xTB          :
 * total energy  :   -30.7298178 Eh     change       -0.2971703E-09 Eh
 * total energy  :   -30.7331131 Eh     change       -0.3295233E-02 Eh
 * total energy  :   -30.7336703 Eh     change       -0.5572476E-03 Eh
 * total energy  :   -30.7339486 Eh     change       -0.2783106E-03 Eh
 * total energy  :   -30.7342454 Eh     change       -0.2967910E-03 Eh
 * total energy  :   -30.7345438 Eh     change       -0.2984213E-03 Eh
 * total energy  :   -30.7348679 Eh     change       -0.3241214E-03 Eh
 * total energy  :   -30.7352145 Eh     change       -0.3465311E-03 Eh
 * total energy  :   -30.7355558 Eh     change       -0.3413108E-03 Eh
 * total energy  :   -30.7359132 Eh     change       -0.3573902E-03 Eh
 * total energy  :   -30.7453437 Eh     change       -0.2437952E-04 Eh
 * total energy  :   -30.7453864 Eh     change       -0.4274470E-04 Eh
 * total energy  :   -30.7454455 Eh     change       -0.5902390E-04 Eh
 * total energy  :   -30.7454816 Eh     change       -0.3614887E-04 Eh
 * total energy  :   -30.7455164 Eh     change       -0.3476714E-04 Eh
 * total energy  :   -30.7455545 Eh     change       -0.3810500E-04 Eh
 * total energy  :   -30.7455820 Eh     change       -0.2749856E-04 Eh
 * total energy  :   -30.7455902 Eh     change       -0.8179776E-05 Eh
 * total energy  :   -30.7455939 Eh     change       -0.3746591E-05 Eh
   *** GEOMETRY OPTIMIZATION CONVERGED AFTER 36 ITERATIONS ***

 final structure:
================
22
 xtb: 6.5.1 (fef0646)
N            2.68026167949158        1.07971695474281        0.41686378296665
C            1.89939679817554       -0.16630153627359        0.20072291941771
C            0.49118177255678        0.00980086163872        0.75887097637573
C            2.61365724628584       -1.33078150393485        0.84295039635725
C            3.01114000159343       -2.41635474029835        0.07592629685379
C            3.65545204184819       -3.49276258350422        0.66040766942689
C            3.91164475855733       -3.49358462036423        2.02093190524979
C            3.51841380819272       -2.41425038170356        2.79379524359473
C            2.87266418146524       -1.34044149035906        2.20859347851199
Cl           5.33291342159075        0.87444493251530       -1.05124228580061
H            3.61409092757177        1.01305152512571       -0.06705696320044
H            2.85788823413133        1.23199099954011        1.41279539583104
H            2.18886703503179        1.88928150012215        0.03019485640280
H            1.85513080548159       -0.33671833177080       -0.87766174912484
H            0.51749416380226        0.20514164353121        1.82630108174474
H           -0.07958393018134       -0.89947269913795        0.59808802412453
H           -0.02134151801028        0.82498864491299        0.25701938054704
H            2.82506483765073       -2.41822092277598       -0.98780789422940
H            3.96428366427535       -4.32979769596666        0.05172485941584
H            4.41829083462861       -4.33177630375765        2.47583923421840
H            3.71795657209215       -2.41118108045997        3.85482642477535
H            2.56709266370671       -0.51615317174543        2.83457696651231

          :  Hamiltonian                  GFN2-xTB          :
         :: total energy             -30.745593901924 Eh    ::
         :: gradient norm              0.000363793185 Eh/a0 ::
         :: HOMO-LUMO gap              4.737811824703 eV    ::
         :: SCC energy               -31.198177820499 Eh    ::
         :: -> dispersion             -0.017707009777 Eh    ::
         :: -> Gsolv                  -0.069970610432 Eh    ::
         :: repulsion energy           0.452409053238 Eh    ::

    * Orbital Energies and Occupations

         #    Occupation            Energy/Eh            Energy/eV
      -------------------------------------------------------------
         1        2.0000           -1.0058491             -27.3705
       ...           ...                  ...                  ...
        16        2.0000           -0.4835405             -13.1578
        17        2.0000           -0.4757964             -12.9471
        18        2.0000           -0.4746860             -12.9169
        19        2.0000           -0.4664229             -12.6920
        20        2.0000           -0.4615294             -12.5589
        21        2.0000           -0.4458637             -12.1326
        22        2.0000           -0.4231040             -11.5132
        23        2.0000           -0.4189403             -11.3999
        24        2.0000           -0.4039053             -10.9908
        25        2.0000           -0.4018352             -10.9345
        26        2.0000           -0.3998096             -10.8794
        27        2.0000           -0.3997351             -10.8773
        28        2.0000           -0.3985558             -10.8453 (HOMO)
        29                         -0.2244444              -6.1074 (LUMO)
        30                         -0.2202538              -5.9934
        31                         -0.0956944              -2.6040
        32                         -0.0193961              -0.5278
        33                          0.0735460               2.0013
        34                          0.0778825               2.1193
        35                          0.0926795               2.5219
        36                          0.1152103               3.1350
        37                          0.1173805               3.1941
        38                          0.1176879               3.2025
        39                          0.1198934               3.2625
       ...                                ...                  ...
        57                          0.6672129              18.1558
      -------------------------------------------------------------
                  HL-Gap            0.1741114 Eh            4.7378 eV

     #   Z          covCN         q      C6AA      α(0)
     1   7 N        3.486    -0.175    24.783     7.394
     2   6 C        3.787     0.034    20.012     6.372
     3   6 C        3.756    -0.145    23.355     6.891
     4   6 C        2.973     0.010    27.782     8.646
     5   6 C        2.925    -0.035    28.863     8.810
     6   6 C        2.919    -0.032    28.796     8.800
     7   6 C        2.920    -0.034    28.857     8.809
     8   6 C        2.919    -0.035    28.868     8.811
     9   6 C        2.924    -0.041    29.020     8.834
    10  17 Cl       0.062    -0.944   124.774    17.000
    11   1 H        0.919     0.294     0.728     1.335
    12   1 H        0.859     0.290     0.745     1.352
    13   1 H        0.859     0.302     0.708     1.318
    14   1 H        0.924     0.090     1.880     2.144
    15   1 H        0.925     0.077     2.013     2.219
    16   1 H        0.925     0.071     2.070     2.250
    17   1 H        0.925     0.076     2.018     2.221
    18   1 H        0.926     0.037     2.487     2.466
    19   1 H        0.926     0.029     2.604     2.523
    20   1 H        0.926     0.031     2.573     2.508
    21   1 H        0.926     0.041     2.437     2.441
    22   1 H        0.926     0.060     2.198     2.318

Wiberg/Mayer (AO) data.
largest (>0.10) Wiberg bond orders for each atom

     #   Z sym  total        # sym  WBO       # sym  WBO       # sym  WBO
 ---------------------------------------------------------------------------
     1   7 N    3.643 --     2 C    0.945    12 H    0.896    13 H    0.892
                            11 H    0.829
     2   6 C    3.937 --     3 C    1.001     4 C    0.994    14 H    0.959
                             1 N    0.945
     3   6 C    3.982 --     2 C    1.001    16 H    0.979    17 H    0.979
                            15 H    0.979
     4   6 C    3.988 --     5 C    1.418     9 C    1.412     2 C    0.994
                             7 C    0.110
     5   6 C    3.992 --     6 C    1.442     4 C    1.418    18 H    0.968
                             8 C    0.111
     6   6 C    3.992 --     7 C    1.442     5 C    1.442    19 H    0.971
                             9 C    0.112
     7   6 C    3.992 --     6 C    1.442     8 C    1.437    20 H    0.971
                             4 C    0.110
     8   6 C    3.992 --     9 C    1.447     7 C    1.437    21 H    0.970
                             5 C    0.111
     9   6 C    3.990 --     8 C    1.447     4 C    1.412    22 H    0.963
                             6 C    0.112
    10  17 Cl   0.108
    11   1 H    0.914 --     1 N    0.829
    12   1 H    0.916 --     1 N    0.896
    13   1 H    0.908 --     1 N    0.892
    14   1 H    0.992 --     2 C    0.959
    15   1 H    0.994 --     3 C    0.979
    16   1 H    0.995 --     3 C    0.979
    17   1 H    0.993 --     3 C    0.979
    18   1 H    0.999 --     5 C    0.968
    19   1 H    0.999 --     6 C    0.971
    20   1 H    0.998 --     7 C    0.971
    21   1 H    0.998 --     8 C    0.970
    22   1 H    0.996 --     9 C    0.963
 ---------------------------------------------------------------------------

molecular dipole:
                 x           y           z       tot (Debye)
 q only:       -5.048       0.282       2.712
   full:       -4.271       0.224       2.360      12.416

           -------------------------------------------------
          | TOTAL ENERGY              -30.745593901924 Eh   |
          | GRADIENT NORM               0.000363793185 Eh/α |
          | HOMO-LUMO GAP               4.737811824703 eV   |
           -------------------------------------------------

 * finished run on 2023/01/24 at 14:58:19.328
