   * xtb version 6.5.1 (fef0646) compiled by 'conda@b96dff2e9fd6' on 2023-01-04
          program call               : xtb init.xyz --opt -c 0 -u 0 -P 16 --input xtb.inp

   ID    Z sym.   atoms
    1    7 N      1
    2    6 C      2-13
    3   17 Cl     14
    4    1 H      15-28

          :  Hamiltonian                  GFN2-xTB          :
 * total energy  :   -40.2616823 Eh     change       -0.1738343E-09 Eh
 * total energy  :   -40.2682900 Eh     change       -0.6607734E-02 Eh
 * total energy  :   -40.2717817 Eh     change       -0.3491658E-02 Eh
 * total energy  :   -40.2732247 Eh     change       -0.1443053E-02 Eh
 * total energy  :   -40.2773728 Eh     change       -0.4148042E-02 Eh
 * total energy  :   -40.2814145 Eh     change       -0.4041756E-02 Eh
 * total energy  :   -40.2848463 Eh     change       -0.3431746E-02 Eh
 * total energy  :   -40.2903336 Eh     change       -0.5487390E-02 Eh
 * total energy  :   -40.2928262 Eh     change       -0.2492575E-02 Eh
 * total energy  :   -40.2946141 Eh     change       -0.1787922E-02 Eh
 * total energy  :   -40.2992235 Eh     change       -0.5747550E-04 Eh
 * total energy  :   -40.2992685 Eh     change       -0.4495990E-04 Eh
 * total energy  :   -40.2993084 Eh     change       -0.3988537E-04 Eh
 * total energy  :   -40.2993356 Eh     change       -0.2717672E-04 Eh
 * total energy  :   -40.2993624 Eh     change       -0.2685527E-04 Eh
 * total energy  :   -40.2993733 Eh     change       -0.1088733E-04 Eh
 * total energy  :   -40.2993791 Eh     change       -0.5809452E-05 Eh
 * total energy  :   -40.2993845 Eh     change       -0.5354397E-05 Eh
 * total energy  :   -40.2993888 Eh     change       -0.4328195E-05 Eh
   *** GEOMETRY OPTIMIZATION CONVERGED AFTER 37 ITERATIONS ***

 final structure:
================
28
 xtb: 6.5.1 (fef0646)
N            1.29458200898148        0.47974528896469        0.23335922866183
C            2.70533096009183        0.08072169281971        0.15556958727523
C            3.60885729870454        0.93305985036937        1.05321577761171
C            3.14199112532308        0.13505999655797       -1.29087423995197
C            3.46000861901591       -1.05756901963496       -1.96652295523258
C            3.83825842832934       -1.04110839282999       -3.27835004123109
C            3.21212696869537        1.32527892902997       -1.96750385161291
C            3.60000338768195        1.37928264765799       -3.32061812474257
C            3.91988012367589        0.17134216200829       -3.99289132471866
C            4.30348165270987        0.22499530902913       -5.34875744062374
C            4.36880259937488        1.41980210068743       -6.00902263250485
C            4.05440671387365        2.61517994657431       -5.34352025393739
C            3.67835553177414        2.59599595781353       -4.02992559640950
Cl          -0.22611442235869       -1.33529608276845       -1.49029884223354
H            0.47334068634436       -0.48333628743323       -0.67603490201234
H            1.16961431897342        1.42533144641922       -0.11203225663330
H            0.95127004423435        0.42928415104347        1.18607540927921
H            2.75051016583934       -0.95871995613690        0.49841536515448
H            3.54941058391363        1.98382549146405        0.77844420727290
H            4.64188474250892        0.61142076958598        0.95269361601456
H            3.31350560675974        0.82956945222627        2.09604878089642
H            3.39202512857203       -1.99430635429824       -1.43383804483070
H            4.07500888640066       -1.96245651762155       -3.79062945889440
H            2.96903566735027        2.25797981341930       -1.47630736825493
H            4.54337599188563       -0.69846194127038       -5.85630345013750
H            4.66194761102163        1.45373366037099       -7.04811938726378
H            4.11135123470779        3.55102587170406       -5.88021000617200
H            3.43481833561527        3.51560001424854       -3.51613179476731

          :  Hamiltonian                  GFN2-xTB          :
         :: total energy             -40.299388804534 Eh    ::
         :: gradient norm              0.000902668841 Eh/a0 ::
         :: HOMO-LUMO gap              3.221637817355 eV    ::
         :: SCC energy               -40.934068674224 Eh    ::
         :: -> dispersion             -0.027857160756 Eh    ::
         :: repulsion energy           0.634465971037 Eh    ::

    * Orbital Energies and Occupations

         #    Occupation            Energy/Eh            Energy/eV
      -------------------------------------------------------------
         1        2.0000           -1.0136786             -27.5836
       ...           ...                  ...                  ...
        25        2.0000           -0.4753257             -12.9343
        26        2.0000           -0.4626763             -12.5901
        27        2.0000           -0.4533522             -12.3363
        28        2.0000           -0.4520618             -12.3012
        29        2.0000           -0.4423498             -12.0370
        30        2.0000           -0.4276567             -11.6371
        31        2.0000           -0.4205034             -11.4425
        32        2.0000           -0.4165546             -11.3350
        33        2.0000           -0.4020363             -10.9400
        34        2.0000           -0.3961813             -10.7806
        35        2.0000           -0.3907528             -10.6329
        36        2.0000           -0.3904447             -10.6245
        37        2.0000           -0.3804782             -10.3533 (HOMO)
        38                         -0.2620852              -7.1317 (LUMO)
        39                         -0.2308804              -6.2826
        40                         -0.1908858              -5.1943
        41                         -0.1493285              -4.0634
        42                         -0.0606775              -1.6511
        43                         -0.0499349              -1.3588
        44                          0.0281482               0.7660
        45                          0.0682838               1.8581
        46                          0.0706363               1.9221
        47                          0.0708379               1.9276
        48                          0.0766006               2.0844
       ...                                ...                  ...
        75                          0.6951332              18.9155
      -------------------------------------------------------------
                  HL-Gap            0.1183930 Eh            3.2216 eV

     #   Z          covCN         q      C6AA      α(0)
     1   7 N        2.699    -0.311    27.991     7.858
     2   6 C        3.787     0.042    19.883     6.351
     3   6 C        3.753    -0.114    22.736     6.799
     4   6 C        2.970     0.003    27.947     8.671
     5   6 C        2.920    -0.032    28.802     8.801
     6   6 C        2.917    -0.031    28.776     8.797
     7   6 C        2.923    -0.040    28.988     8.829
     8   6 C        2.986     0.014    27.704     8.634
     9   6 C        2.988     0.014    27.688     8.632
    10   6 C        2.918    -0.033    28.828     8.805
    11   6 C        2.916    -0.029    28.730     8.790
    12   6 C        2.916    -0.029    28.731     8.790
    13   6 C        2.918    -0.035    28.870     8.811
    14  17 Cl       0.838    -0.484   115.090    16.412
    15   1 H        0.903     0.328     0.631     1.243
    16   1 H        0.860     0.169     1.281     1.773
    17   1 H        0.860     0.166     1.296     1.783
    18   1 H        0.924     0.050     2.326     2.385
    19   1 H        0.925     0.041     2.438     2.442
    20   1 H        0.925     0.046     2.377     2.411
    21   1 H        0.925     0.038     2.477     2.461
    22   1 H        0.926     0.039     2.463     2.454
    23   1 H        0.926     0.038     2.478     2.462
    24   1 H        0.925     0.027     2.630     2.536
    25   1 H        0.926     0.033     2.540     2.492
    26   1 H        0.926     0.031     2.569     2.506
    27   1 H        0.926     0.031     2.578     2.511
    28   1 H        0.926     0.029     2.599     2.521

Wiberg/Mayer (AO) data.
largest (>0.10) Wiberg bond orders for each atom

     #   Z sym  total        # sym  WBO       # sym  WBO       # sym  WBO
 ---------------------------------------------------------------------------
     1   7 N    3.242 --     2 C    0.987    17 H    0.957    16 H    0.954
                            15 H    0.207
     2   6 C    3.972 --     3 C    0.995     4 C    0.990     1 N    0.987
                            18 H    0.964
     3   6 C    3.994 --     2 C    0.995    21 H    0.985    20 H    0.985
                            19 H    0.984
     4   6 C    3.988 --     7 C    1.529     5 C    1.300     2 C    0.990
     5   6 C    3.991 --     6 C    1.560     4 C    1.300    22 H    0.967
     6   6 C    3.992 --     5 C    1.560     9 C    1.279    23 H    0.968
                             7 C    0.116
     7   6 C    3.992 --     4 C    1.529     8 C    1.283    24 H    0.964
                             6 C    0.116
     8   6 C    3.991 --     7 C    1.283    13 C    1.279     9 C    1.250
     9   6 C    3.990 --    10 C    1.281     6 C    1.279     8 C    1.250
    10   6 C    3.992 --    11 C    1.557     9 C    1.281    25 H    0.968
                            13 C    0.118
    11   6 C    3.991 --    10 C    1.557    12 C    1.320    26 H    0.971
    12   6 C    3.992 --    13 C    1.558    11 C    1.320    27 H    0.971
    13   6 C    3.990 --    12 C    1.558     8 C    1.279    28 H    0.969
                            10 C    0.118
    14  17 Cl   0.768 --    15 H    0.681
    15   1 H    0.892 --    14 Cl   0.681     1 N    0.207
    16   1 H    0.972 --     1 N    0.954
    17   1 H    0.972 --     1 N    0.957
    18   1 H    0.997 --     2 C    0.964
    19   1 H    0.998 --     3 C    0.984
    20   1 H    0.998 --     3 C    0.985
    21   1 H    0.998 --     3 C    0.985
    22   1 H    0.998 --     5 C    0.967
    23   1 H    0.998 --     6 C    0.968
    24   1 H    0.999 --     7 C    0.964
    25   1 H    0.998 --    10 C    0.968
    26   1 H    0.999 --    11 C    0.971
    27   1 H    0.999 --    12 C    0.971
    28   1 H    0.999 --    13 C    0.969
 ---------------------------------------------------------------------------

molecular dipole:
                 x           y           z       tot (Debye)
 q only:        1.259       1.135       0.988
   full:        1.129       1.155       0.960       4.777

           -------------------------------------------------
          | TOTAL ENERGY              -40.299388804534 Eh   |
          | GRADIENT NORM               0.000902668841 Eh/α |
          | HOMO-LUMO GAP               3.221637817355 eV   |
           -------------------------------------------------

 * finished run on 2023/01/23 at 21:09:45.854
