   * xtb version 6.5.1 (fef0646) compiled by 'conda@b96dff2e9fd6' on 2023-01-04
          program call               : xtb init.xyz --opt -c 0 -u 0 -P 16 --alpb water

   ID    Z sym.   atoms
    1    7 N      1
    2    6 C      2-13
    3   17 Cl     14
    4    1 H      15-28

      * Solvation model:               ALPB
        Solvent                        water
        Solvent mass                       1.8000E+01 g/mol
          :  Hamiltonian                  GFN2-xTB          :
 * total energy  :   -40.3252261 Eh     change       -0.3954739E-09 Eh
 * total energy  :   -40.3328910 Eh     change       -0.7664829E-02 Eh
 * total energy  :   -40.3346535 Eh     change       -0.1762506E-02 Eh
 * total energy  :   -40.3350499 Eh     change       -0.3964245E-03 Eh
 * total energy  :   -40.3354332 Eh     change       -0.3833329E-03 Eh
 * total energy  :   -40.3361186 Eh     change       -0.6854119E-03 Eh
 * total energy  :   -40.3368766 Eh     change       -0.7579972E-03 Eh
 * total energy  :   -40.3380186 Eh     change       -0.1141936E-02 Eh
 * total energy  :   -40.3393899 Eh     change       -0.1371327E-02 Eh
 * total energy  :   -40.3396627 Eh     change       -0.2728239E-03 Eh
 * total energy  :   -40.3411161 Eh     change       -0.1433003E-04 Eh
 * total energy  :   -40.3411457 Eh     change       -0.2962011E-04 Eh
 * total energy  :   -40.3411653 Eh     change       -0.1951901E-04 Eh
 * total energy  :   -40.3411971 Eh     change       -0.3188417E-04 Eh
 * total energy  :   -40.3412522 Eh     change       -0.5502872E-04 Eh
 * total energy  :   -40.3412959 Eh     change       -0.4370839E-04 Eh
 * total energy  :   -40.3413101 Eh     change       -0.1426104E-04 Eh
 * total energy  :   -40.3413167 Eh     change       -0.6592957E-05 Eh
 * total energy  :   -40.3413199 Eh     change       -0.3201324E-05 Eh
   *** GEOMETRY OPTIMIZATION CONVERGED AFTER 32 ITERATIONS ***

 final structure:
================
28
 xtb: 6.5.1 (fef0646)
N            0.88103717347705        0.38958302960451        0.24584120020657
C            2.33738455468097        0.15319114537592        0.06714808714700
C            2.65603992006282        0.03689364893245       -1.41960573042767
C            2.74397611486195       -1.08434907002258        0.82908432935932
C            2.15814848790334       -2.32862504132586        0.52064043707565
C            2.51596112997131       -3.45773182728161        1.19874991596116
C            3.68696503750480       -1.01540665266505        1.81929663682292
C            4.07938995953307       -2.16193943912408        2.53920223500508
C            3.48140574334362       -3.40991243865057        2.22561463146654
C            3.86869979155045       -4.55576871757838        2.95049788612506
C            4.80339532584912       -4.46925201582582        3.94402860520487
C            5.39395871993334       -3.23413315767833        4.25643446591732
C            5.04199532724403       -2.10652034210379        3.56880431806305
Cl           0.23138543507497        0.81165842716495        3.18372892272821
H            0.65244600951417        0.53423913760819        1.26451974286948
H            0.34087892858084       -0.41772696007618       -0.07572074430419
H            0.57919485682825        1.22434325646654       -0.26262861930692
H            2.86194649217998        1.01063435217355        0.49512235915847
H            2.12650826794923       -0.79787794544467       -1.86781757057828
H            3.72027015482896       -0.13088824254012       -1.55178401313868
H            2.38966775481812        0.95145873936504       -1.94094092158162
H            1.42200991828902       -2.40151952346988       -0.26491402613050
H            2.06135878646552       -4.40868130681975        0.96246978188806
H            4.14182440014256       -0.06964935525907        2.07593488127660
H            3.41052437077229       -5.50398272234688        2.70834975727852
H            5.09447773874286       -5.34928489555951        4.49839449546586
H            6.12831779681432       -3.18386371812092        5.04691333544515
H            5.49174180308539       -1.15349836479411        3.80823560100010

          :  Hamiltonian                  GFN2-xTB          :
         :: total energy             -40.341319934906 Eh    ::
         :: gradient norm              0.000461168696 Eh/a0 ::
         :: HOMO-LUMO gap              3.234831967103 eV    ::
         :: SCC energy               -40.984542371879 Eh    ::
         :: -> dispersion             -0.026723147936 Eh    ::
         :: -> Gsolv                  -0.070919784540 Eh    ::
         :: repulsion energy           0.643050487804 Eh    ::

    * Orbital Energies and Occupations

         #    Occupation            Energy/Eh            Energy/eV
      -------------------------------------------------------------
         1        2.0000           -1.0055008             -27.3611
       ...           ...                  ...                  ...
        25        2.0000           -0.4657814             -12.6746
        26        2.0000           -0.4565251             -12.4227
        27        2.0000           -0.4514690             -12.2851
        28        2.0000           -0.4463371             -12.1455
        29        2.0000           -0.4344570             -11.8222
        30        2.0000           -0.4227601             -11.5039
        31        2.0000           -0.4160634             -11.3217
        32        2.0000           -0.4115911             -11.2000
        33        2.0000           -0.4028332             -10.9616
        34        2.0000           -0.3993580             -10.8671
        35        2.0000           -0.3991789             -10.8622
        36        2.0000           -0.3963836             -10.7861
        37        2.0000           -0.3762071             -10.2371 (HOMO)
        38                         -0.2573293              -7.0023 (LUMO)
        39                         -0.2276264              -6.1940
        40                         -0.1862666              -5.0686
        41                         -0.1464532              -3.9852
        42                         -0.0567771              -1.5450
        43                         -0.0186060              -0.5063
        44                          0.0734370               1.9983
        45                          0.0760692               2.0699
        46                          0.0925444               2.5183
        47                          0.1071501               2.9157
        48                          0.1168075               3.1785
       ...                                ...                  ...
        75                          0.6990627              19.0225
      -------------------------------------------------------------
                  HL-Gap            0.1188779 Eh            3.2348 eV

     #   Z          covCN         q      C6AA      α(0)
     1   7 N        3.486    -0.175    24.779     7.393
     2   6 C        3.787     0.035    20.006     6.371
     3   6 C        3.756    -0.145    23.355     6.891
     4   6 C        2.969     0.009    27.812     8.650
     5   6 C        2.920    -0.042    29.044     8.838
     6   6 C        2.917    -0.040    29.003     8.831
     7   6 C        2.924    -0.040    29.006     8.832
     8   6 C        2.986     0.012    27.747     8.641
     9   6 C        2.988     0.010    27.795     8.648
    10   6 C        2.918    -0.041    29.009     8.832
    11   6 C        2.916    -0.036    28.894     8.815
    12   6 C        2.916    -0.036    28.890     8.814
    13   6 C        2.918    -0.039    28.974     8.827
    14  17 Cl       0.063    -0.944   124.768    17.000
    15   1 H        0.920     0.293     0.728     1.335
    16   1 H        0.859     0.290     0.745     1.352
    17   1 H        0.859     0.302     0.708     1.318
    18   1 H        0.924     0.091     1.874     2.141
    19   1 H        0.925     0.076     2.017     2.221
    20   1 H        0.925     0.072     2.068     2.249
    21   1 H        0.925     0.077     2.010     2.217
    22   1 H        0.926     0.061     2.189     2.313
    23   1 H        0.926     0.042     2.427     2.436
    24   1 H        0.926     0.039     2.461     2.453
    25   1 H        0.926     0.037     2.494     2.470
    26   1 H        0.926     0.032     2.551     2.498
    27   1 H        0.926     0.031     2.576     2.510
    28   1 H        0.926     0.032     2.558     2.501

Wiberg/Mayer (AO) data.
largest (>0.10) Wiberg bond orders for each atom

     #   Z sym  total        # sym  WBO       # sym  WBO       # sym  WBO
 ---------------------------------------------------------------------------
     1   7 N    3.641 --     2 C    0.945    16 H    0.896    17 H    0.893
                            15 H    0.828
     2   6 C    3.937 --     3 C    1.001     4 C    0.994    18 H    0.959
                             1 N    0.945
     3   6 C    3.981 --     2 C    1.001    20 H    0.979    21 H    0.979
                            19 H    0.979
     4   6 C    3.988 --     7 C    1.531     5 C    1.295     2 C    0.994
     5   6 C    3.990 --     6 C    1.564     4 C    1.295    22 H    0.962
     6   6 C    3.991 --     5 C    1.564     9 C    1.276    23 H    0.968
                             7 C    0.115
     7   6 C    3.991 --     4 C    1.531     8 C    1.280    24 H    0.965
                             6 C    0.115
     8   6 C    3.990 --     7 C    1.280    13 C    1.279     9 C    1.252
     9   6 C    3.990 --    10 C    1.281     6 C    1.276     8 C    1.252
    10   6 C    3.991 --    11 C    1.556     9 C    1.281    25 H    0.968
                            13 C    0.118
    11   6 C    3.990 --    10 C    1.556    12 C    1.321    26 H    0.971
    12   6 C    3.992 --    13 C    1.558    11 C    1.321    27 H    0.971
    13   6 C    3.990 --    12 C    1.558     8 C    1.279    28 H    0.968
                            10 C    0.118
    14  17 Cl   0.108
    15   1 H    0.914 --     1 N    0.828
    16   1 H    0.916 --     1 N    0.896
    17   1 H    0.908 --     1 N    0.893
    18   1 H    0.991 --     2 C    0.959
    19   1 H    0.994 --     3 C    0.979
    20   1 H    0.995 --     3 C    0.979
    21   1 H    0.993 --     3 C    0.979
    22   1 H    0.996 --     5 C    0.962
    23   1 H    0.997 --     6 C    0.968
    24   1 H    0.998 --     7 C    0.965
    25   1 H    0.998 --    10 C    0.968
    26   1 H    0.999 --    11 C    0.971
    27   1 H    0.999 --    12 C    0.971
    28   1 H    0.998 --    13 C    0.968
 ---------------------------------------------------------------------------

molecular dipole:
                 x           y           z       tot (Debye)
 q only:        1.309      -0.798      -5.558
   full:        1.098      -0.733      -4.694      12.394

           -------------------------------------------------
          | TOTAL ENERGY              -40.341319934906 Eh   |
          | GRADIENT NORM               0.000461168696 Eh/α |
          | HOMO-LUMO GAP               3.234831967103 eV   |
           -------------------------------------------------

 * finished run on 2023/01/24 at 16:55:01.147
