   * xtb version 6.5.1 (fef0646) compiled by 'conda@b96dff2e9fd6' on 2023-01-04
          program call               : xtb init.xyz --opt -c 1 -u 0 -P 16

   ID    Z sym.   atoms
    1    7 N      1
    2    6 C      2, 3, 5
    3   16 S      4
    4    1 H      6-15

          :  Hamiltonian                  GFN2-xTB          :
 * total energy  :   -17.2391368 Eh     change       -0.2036309E-09 Eh
 * total energy  :   -17.2406879 Eh     change       -0.1551138E-02 Eh
 * total energy  :   -17.2411192 Eh     change       -0.4312926E-03 Eh
 * total energy  :   -17.2412503 Eh     change       -0.1310484E-03 Eh
 * total energy  :   -17.2413486 Eh     change       -0.9833753E-04 Eh
 * total energy  :   -17.2414580 Eh     change       -0.1094224E-03 Eh
 * total energy  :   -17.2416029 Eh     change       -0.1448446E-03 Eh
 * total energy  :   -17.2417594 Eh     change       -0.1565499E-03 Eh
 * total energy  :   -17.2418956 Eh     change       -0.1361317E-03 Eh
 * total energy  :   -17.2419787 Eh     change       -0.8317560E-04 Eh
 * total energy  :   -17.2426505 Eh     change       -0.7225010E-04 Eh
 * total energy  :   -17.2427099 Eh     change       -0.5946758E-04 Eh
 * total energy  :   -17.2427445 Eh     change       -0.3452201E-04 Eh
 * total energy  :   -17.2427649 Eh     change       -0.2047756E-04 Eh
 * total energy  :   -17.2427764 Eh     change       -0.1144574E-04 Eh
 * total energy  :   -17.2427893 Eh     change       -0.1295347E-04 Eh
 * total energy  :   -17.2428043 Eh     change       -0.1494975E-04 Eh
 * total energy  :   -17.2428142 Eh     change       -0.9895001E-05 Eh
 * total energy  :   -17.2428186 Eh     change       -0.4392462E-05 Eh
   *** GEOMETRY OPTIMIZATION CONVERGED AFTER 28 ITERATIONS ***

 final structure:
================
15
 xtb: 6.5.1 (fef0646)
N            3.12507290494139        1.31958624919084        0.00366849643501
C            2.35311038182511        0.04935587023472        0.05601026858845
C            2.90193535294578       -0.87405447362131       -1.02505924068744
S            4.74701132807822       -0.88224750018696       -0.87165617382890
C            5.22831233934174       -0.94508300832506       -2.61647676134530
H            3.12961788211709        1.82186875843688        0.89516987876842
H            2.78747969079896        1.94718136201724       -0.73231350640060
H            4.10987064411821        0.96354589679589       -0.24737770151596
H            1.28784590011928        0.23431226647730       -0.08578481578126
H            2.50716032512010       -0.40613629068937        1.03531393209547
H            2.65204499277814       -0.52225730291711       -2.02503233349613
H            2.52194173395704       -1.88502959689579       -0.89559626749577
H            6.31323715765423       -0.91079215756623       -2.63237136959709
H            4.82044990223438       -0.09478760898999       -3.15415327039087
H            4.88499946397003       -1.88222246396086       -3.04369113534824

          :  Hamiltonian                  GFN2-xTB          :
         :: total energy             -17.242818565937 Eh    ::
         :: gradient norm              0.000547490088 Eh/a0 ::
         :: HOMO-LUMO gap              4.421082344107 eV    ::
         :: SCC energy               -17.443364885430 Eh    ::
         :: -> dispersion             -0.007570320095 Eh    ::
         :: repulsion energy           0.200530410176 Eh    ::

    * Orbital Energies and Occupations

         #    Occupation            Energy/Eh            Energy/eV
      -------------------------------------------------------------
         1        2.0000           -0.8867202             -24.1289
       ...           ...                  ...                  ...
         4        2.0000           -0.7947656             -21.6267
         5        2.0000           -0.7866051             -21.4046
         6        2.0000           -0.7729231             -21.0323
         7        2.0000           -0.7426061             -20.2073
         8        2.0000           -0.7313473             -19.9010
         9        2.0000           -0.6904822             -18.7890
        10        2.0000           -0.6688045             -18.1991
        11        2.0000           -0.6564790             -17.8637
        12        2.0000           -0.6401199             -17.4185
        13        2.0000           -0.6359028             -17.3038
        14        2.0000           -0.6170279             -16.7902
        15        2.0000           -0.5997544             -16.3201
        16        2.0000           -0.5233545             -14.2412 (HOMO)
        17                         -0.3608827              -9.8201 (LUMO)
        18                         -0.3076537              -8.3717
        19                         -0.2560918              -6.9686
        20                         -0.1855027              -5.0478
        21                         -0.1615532              -4.3961
        22                         -0.1453976              -3.9565
        23                         -0.1231876              -3.3521
        24                         -0.0877850              -2.3888
        25                         -0.0673581              -1.8329
        26                         -0.0631474              -1.7183
        27                         -0.0216070              -0.5880
       ...                                ...                  ...
        35                          0.2496501               6.7933
      -------------------------------------------------------------
                  HL-Gap            0.1624718 Eh            4.4211 eV

     #   Z          covCN         q      C6AA      α(0)
     1   7 N        3.484    -0.156    24.371     7.332
     2   6 C        3.775    -0.033    21.195     6.560
     3   6 C        3.794    -0.052    21.507     6.604
     4  16 S        2.042    -0.149   147.334    20.429
     5   6 C        3.745    -0.066    21.834     6.666
     6   1 H        0.859     0.267     0.820     1.419
     7   1 H        0.859     0.263     0.834     1.430
     8   1 H        0.907     0.285     0.755     1.359
     9   1 H        0.924     0.113     1.674     2.023
    10   1 H        0.924     0.117     1.638     2.001
    11   1 H        0.925     0.082     1.960     2.189
    12   1 H        0.925     0.099     1.794     2.094
    13   1 H        0.925     0.088     1.897     2.154
    14   1 H        0.925     0.064     2.148     2.292
    15   1 H        0.925     0.077     2.005     2.215

Wiberg/Mayer (AO) data.
largest (>0.10) Wiberg bond orders for each atom

     #   Z sym  total        # sym  WBO       # sym  WBO       # sym  WBO
 ---------------------------------------------------------------------------
     1   7 N    3.653 --     2 C    0.950     7 H    0.916     6 H    0.915
                             8 H    0.800
     2   6 C    3.913 --     3 C    1.016    10 H    0.966     9 H    0.963
                             1 N    0.950
     3   6 C    3.975 --     2 C    1.016     4 S    0.989    11 H    0.969
                            12 H    0.967
     4  16 S    2.224 --     5 C    1.007     3 C    0.989     8 H    0.102
     5   6 C    3.961 --     4 S    1.007    14 H    0.981    15 H    0.980
                            13 H    0.972
     6   1 H    0.929 --     1 N    0.915
     7   1 H    0.931 --     1 N    0.916
     8   1 H    0.919 --     1 N    0.800     4 S    0.102
     9   1 H    0.987 --     2 C    0.963
    10   1 H    0.986 --     2 C    0.966
    11   1 H    0.993 --     3 C    0.969
    12   1 H    0.990 --     3 C    0.967
    13   1 H    0.992 --     5 C    0.972
    14   1 H    0.996 --     5 C    0.981
    15   1 H    0.994 --     5 C    0.980
 ---------------------------------------------------------------------------

molecular dipole:
                 x           y           z       tot (Debye)
 q only:        5.903       1.553      -0.918
   full:        5.897       1.497      -1.283      15.805

           -------------------------------------------------
          | TOTAL ENERGY              -17.242818565937 Eh   |
          | GRADIENT NORM               0.000547490088 Eh/α |
          | HOMO-LUMO GAP               4.421082344107 eV   |
           -------------------------------------------------

 * finished run on 2023/01/23 at 14:28:10.044
