   * xtb version 6.5.1 (fef0646) compiled by 'conda@b96dff2e9fd6' on 2023-01-04
          program call               : xtb init.xyz --opt -c 1 -u 0 -P 16 --input xtb.inp

   ID    Z sym.   atoms
    1    7 N      1
    2    6 C      2-12, 14-18
    3    9 F      13
    4    1 H      19-35

          :  Hamiltonian                  GFN2-xTB          :
 * total energy  :   -50.1159466 Eh     change       -0.1548273E-09 Eh
 * total energy  :   -50.1193115 Eh     change       -0.3364869E-02 Eh
 * total energy  :   -50.1201540 Eh     change       -0.8425464E-03 Eh
 * total energy  :   -50.1206066 Eh     change       -0.4525761E-03 Eh
 * total energy  :   -50.1211261 Eh     change       -0.5194396E-03 Eh
 * total energy  :   -50.1215728 Eh     change       -0.4467255E-03 Eh
 * total energy  :   -50.1220318 Eh     change       -0.4590317E-03 Eh
 * total energy  :   -50.1225186 Eh     change       -0.4867605E-03 Eh
 * total energy  :   -50.1229693 Eh     change       -0.4506825E-03 Eh
 * total energy  :   -50.1233707 Eh     change       -0.4014976E-03 Eh
 * total energy  :   -50.1247094 Eh     change       -0.8613044E-04 Eh
 * total energy  :   -50.1247732 Eh     change       -0.6381472E-04 Eh
 * total energy  :   -50.1248042 Eh     change       -0.3106142E-04 Eh
 * total energy  :   -50.1248350 Eh     change       -0.3075894E-04 Eh
 * total energy  :   -50.1248588 Eh     change       -0.2379926E-04 Eh
 * total energy  :   -50.1248870 Eh     change       -0.2823297E-04 Eh
 * total energy  :   -50.1248964 Eh     change       -0.9365067E-05 Eh
 * total energy  :   -50.1249083 Eh     change       -0.1185351E-04 Eh
 * total energy  :   -50.1249128 Eh     change       -0.4584157E-05 Eh
   *** GEOMETRY OPTIMIZATION CONVERGED AFTER 26 ITERATIONS ***

 final structure:
================
35
 xtb: 6.5.1 (fef0646)
N            3.09626405999333        2.82235433626321       -0.41710759876771
C            2.40231073867475        1.52596789636253       -0.16103316898065
C            2.84854947426392        0.53550751097736       -1.24043440305250
C            4.35331641872064        0.46043702025267       -1.23110668858023
C            5.02037922795999       -0.43563355567613       -0.40196045105568
C            6.39758076138152       -0.44698912292026       -0.33561737952742
C            7.16780912130068        0.44964129234112       -1.08692877879405
C            8.61550712371077        0.47076991147157       -1.05964421298224
C            9.40254118439117       -0.51017424353209       -0.59190831067318
C           10.85234438407873       -0.50831013052028       -0.58668871194344
C           11.60418852742924        0.65013373269050       -0.79573478643141
C           12.98122657812498        0.57300362034550       -0.78405991989732
F           13.68817873738970        1.70134516865371       -0.98073403568050
C           13.65610425407024       -0.61831022136478       -0.57611515448009
C           12.90993203501145       -1.76522193065535       -0.36362535938740
C           11.52923579358373       -1.71141271707294       -0.36139036453035
C            6.49143355387493        1.35857119653434       -1.90610167018351
C            5.10966780912376        1.36786286641679       -1.97844282904745
H            3.15793934876380        3.41238133209849        0.41719412450712
H            2.62723791230579        3.34731625156370       -1.16302797432606
H            4.05920261196070        2.54760174492700       -0.76372339926031
H            1.32265811112600        1.67248301630994       -0.16510915756581
H            2.70918993285328        1.16080195249996        0.81978517846298
H            2.48443551263509        0.85608070365654       -2.21765505451372
H            2.41537817142684       -0.43926385458865       -1.02368798933794
H            4.45073056638039       -1.14053751053591        0.18542793545603
H            6.88426246060620       -1.15537854751564        0.31487272458932
H            9.06334595551299        1.34831362543225       -1.50482930884136
H            8.95438786301978       -1.41925546813345       -0.21310767265982
H           11.13744108065695        1.60952516537292       -0.94928567626047
H           14.73385351162622       -0.63359316634981       -0.57836912341671
H           13.41240627086103       -2.70511982410534       -0.19597325832124
H           10.96040531882864       -2.61417110926510       -0.19482964514250
H            7.05856415269282        2.05106954266667       -2.50981696622887
H            4.62943143565886        2.01729351539884       -2.70160091314699

          :  Hamiltonian                  GFN2-xTB          :
         :: total energy             -50.124912836650 Eh    ::
         :: gradient norm              0.000642320323 Eh/a0 ::
         :: HOMO-LUMO gap              2.565395004887 eV    ::
         :: SCC energy               -50.962961900060 Eh    ::
         :: -> dispersion             -0.031877131360 Eh    ::
         :: repulsion energy           0.838327716608 Eh    ::

    * Orbital Energies and Occupations

         #    Occupation            Energy/Eh            Energy/eV
      -------------------------------------------------------------
         1        2.0000           -0.8790940             -23.9214
       ...           ...                  ...                  ...
        34        2.0000           -0.5651149             -15.3776
        35        2.0000           -0.5607742             -15.2594
        36        2.0000           -0.5567670             -15.1504
        37        2.0000           -0.5451330             -14.8338
        38        2.0000           -0.5428268             -14.7711
        39        2.0000           -0.5396498             -14.6846
        40        2.0000           -0.5315676             -14.4647
        41        2.0000           -0.5291918             -14.4000
        42        2.0000           -0.5179475             -14.0941
        43        2.0000           -0.5107953             -13.8994
        44        2.0000           -0.5029763             -13.6867
        45        2.0000           -0.4821447             -13.1198
        46        2.0000           -0.4691363             -12.7658 (HOMO)
        47                         -0.3748597             -10.2005 (LUMO)
        48                         -0.3518635              -9.5747
        49                         -0.3186585              -8.6711
        50                         -0.3035032              -8.2587
        51                         -0.2643811              -7.1942
        52                         -0.2403818              -6.5411
        53                         -0.2046100              -5.5677
        54                         -0.1623872              -4.4188
        55                         -0.1391048              -3.7852
        56                         -0.0852624              -2.3201
        57                         -0.0774276              -2.1069
       ...                                ...                  ...
        89                          0.6022522              16.3881
      -------------------------------------------------------------
                  HL-Gap            0.0942765 Eh            2.5654 eV

     #   Z          covCN         q      C6AA      α(0)
     1   7 N        3.482    -0.145    24.124     7.295
     2   6 C        3.734    -0.029    21.174     6.567
     3   6 C        3.809    -0.090    22.217     6.710
     4   6 C        2.972    -0.013    28.336     8.732
     5   6 C        2.919    -0.039    28.973     8.827
     6   6 C        2.922    -0.030    28.740     8.791
     7   6 C        2.969     0.025    27.449     8.594
     8   6 C        2.902    -0.047    29.159     8.854
     9   6 C        2.902    -0.023    28.589     8.767
    10   6 C        2.974     0.016    27.651     8.625
    11   6 C        2.921    -0.052    29.281     8.874
    12   6 C        2.784     0.175    24.235     8.064
    13   9 F        0.787    -0.218    11.419     3.992
    14   6 C        2.917    -0.042    29.040     8.837
    15   6 C        2.921    -0.024    28.615     8.772
    16   6 C        2.927    -0.036    28.892     8.815
    17   6 C        2.926    -0.037    28.927     8.820
    18   6 C        2.918    -0.068    29.682     8.934
    19   1 H        0.859     0.258     0.852     1.446
    20   1 H        0.859     0.261     0.842     1.438
    21   1 H        0.856     0.279     0.779     1.383
    22   1 H        0.925     0.101     1.779     2.086
    23   1 H        0.924     0.102     1.767     2.079
    24   1 H        0.924     0.069     2.101     2.267
    25   1 H        0.925     0.091     1.866     2.136
    26   1 H        0.926     0.046     2.370     2.407
    27   1 H        0.926     0.056     2.251     2.346
    28   1 H        0.926     0.049     2.334     2.389
    29   1 H        0.925     0.050     2.321     2.382
    30   1 H        0.926     0.059     2.208     2.324
    31   1 H        0.926     0.071     2.074     2.252
    32   1 H        0.926     0.058     2.228     2.334
    33   1 H        0.926     0.049     2.335     2.390
    34   1 H        0.926     0.049     2.337     2.391
    35   1 H        0.925     0.030     2.587     2.515

Wiberg/Mayer (AO) data.
largest (>0.10) Wiberg bond orders for each atom

     #   Z sym  total        # sym  WBO       # sym  WBO       # sym  WBO
 ---------------------------------------------------------------------------
     1   7 N    3.663 --     2 C    0.935    19 H    0.919    20 H    0.917
                            21 H    0.827
     2   6 C    3.898 --     3 C    0.992    23 H    0.969    22 H    0.969
                             1 N    0.935
     3   6 C    3.979 --     4 C    1.006     2 C    0.992    24 H    0.969
                            25 H    0.961
     4   6 C    3.972 --     5 C    1.392    18 C    1.369     3 C    1.006
     5   6 C    3.990 --     6 C    1.476     4 C    1.392    26 H    0.967
     6   6 C    3.981 --     5 C    1.476     7 C    1.349    27 H    0.964
     7   6 C    3.986 --    17 C    1.365     6 C    1.349     8 C    1.121
     8   6 C    3.989 --     9 C    1.748     7 C    1.121    28 H    0.958
     9   6 C    3.986 --     8 C    1.748    10 C    1.118    29 H    0.958
    10   6 C    3.989 --    16 C    1.362    11 C    1.361     9 C    1.118
    11   6 C    3.980 --    12 C    1.419    10 C    1.361    30 H    0.962
                            15 C    0.103
    12   6 C    3.890 --    11 C    1.419    14 C    1.381    13 F    0.966
    13   9 F    1.100 --    12 C    0.966
    14   6 C    3.975 --    15 C    1.432    12 C    1.381    31 H    0.966
    15   6 C    3.990 --    16 C    1.457    14 C    1.432    32 H    0.969
                            11 C    0.103
    16   6 C    3.980 --    15 C    1.457    10 C    1.362    33 H    0.968
    17   6 C    3.980 --    18 C    1.444     7 C    1.365    34 H    0.967
    18   6 C    3.989 --    17 C    1.444     4 C    1.369    35 H    0.959
    19   1 H    0.933 --     1 N    0.919
    20   1 H    0.932 --     1 N    0.917
    21   1 H    0.922 --     1 N    0.827
    22   1 H    0.989 --     2 C    0.969
    23   1 H    0.990 --     2 C    0.969
    24   1 H    0.995 --     3 C    0.969
    25   1 H    0.991 --     3 C    0.961
    26   1 H    0.997 --     5 C    0.967
    27   1 H    0.997 --     6 C    0.964
    28   1 H    0.997 --     8 C    0.958
    29   1 H    0.997 --     9 C    0.958
    30   1 H    0.996 --    11 C    0.962
    31   1 H    0.995 --    14 C    0.966
    32   1 H    0.996 --    15 C    0.969
    33   1 H    0.998 --    16 C    0.968
    34   1 H    0.997 --    17 C    0.967
    35   1 H    0.999 --    18 C    0.959
 ---------------------------------------------------------------------------

molecular dipole:
                 x           y           z       tot (Debye)
 q only:        7.031       3.359      -0.666
   full:        7.012       3.522      -0.701      20.024

           -------------------------------------------------
          | TOTAL ENERGY              -50.124912836650 Eh   |
          | GRADIENT NORM               0.000642320323 Eh/α |
          | HOMO-LUMO GAP               2.565395004887 eV   |
           -------------------------------------------------

 * finished run on 2023/01/23 at 19:10:52.302
