   * xtb version 6.5.1 (fef0646) compiled by 'conda@b96dff2e9fd6' on 2023-01-04
          program call               : xtb init.xyz --opt -c 1 -u 0 -P 16 --alpb water

   ID    Z sym.   atoms
    1    7 N      1
    2    6 C      2-12, 14-18
    3    9 F      13
    4    1 H      19-35

      * Solvation model:               ALPB
        Solvent                        water
        Solvent mass                       1.8000E+01 g/mol
          :  Hamiltonian                  GFN2-xTB          :
 * total energy  :   -50.2284582 Eh     change       -0.1805773E-09 Eh
 * total energy  :   -50.2320381 Eh     change       -0.3579920E-02 Eh
 * total energy  :   -50.2327889 Eh     change       -0.7507390E-03 Eh
 * total energy  :   -50.2330220 Eh     change       -0.2331463E-03 Eh
 * total energy  :   -50.2332084 Eh     change       -0.1863454E-03 Eh
 * total energy  :   -50.2333264 Eh     change       -0.1179877E-03 Eh
 * total energy  :   -50.2334611 Eh     change       -0.1347729E-03 Eh
 * total energy  :   -50.2336422 Eh     change       -0.1810835E-03 Eh
 * total energy  :   -50.2338420 Eh     change       -0.1997670E-03 Eh
 * total energy  :   -50.2340693 Eh     change       -0.2272855E-03 Eh
 * total energy  :   -50.2345921 Eh     change       -0.2643209E-04 Eh
 * total energy  :   -50.2346176 Eh     change       -0.2543640E-04 Eh
 * total energy  :   -50.2346340 Eh     change       -0.1638656E-04 Eh
 * total energy  :   -50.2346503 Eh     change       -0.1631148E-04 Eh
 * total energy  :   -50.2346627 Eh     change       -0.1245931E-04 Eh
 * total energy  :   -50.2346723 Eh     change       -0.9526400E-05 Eh
 * total energy  :   -50.2346799 Eh     change       -0.7652908E-05 Eh
 * total energy  :   -50.2346851 Eh     change       -0.5196993E-05 Eh
 * total energy  :   -50.2346900 Eh     change       -0.4866797E-05 Eh
   *** GEOMETRY OPTIMIZATION CONVERGED AFTER 24 ITERATIONS ***

 final structure:
================
35
 xtb: 6.5.1 (fef0646)
N            2.89211815661551       -1.30521077432781       -1.85143333463591
C            2.47808198858600       -0.56668676559985       -0.63361666767238
C            3.05087582130538       -1.24633187128601        0.60967751468252
C            4.55503346254471       -1.17855871547410        0.62750062126252
C            5.20207194867107       -0.00086364426280        0.98911005809833
C            6.57938624892286        0.07946318062674        0.99476366622954
C            7.36242156773580       -1.02065929069754        0.63276581904650
C            8.81372158613457       -0.99816211037150        0.63675648892811
C            9.58351504583920       -0.08041949550655        1.23774477505516
C           11.03481565534111       -0.07824110750984        1.26656189153781
C           11.80847316941624       -0.86436152626728        0.40884245186878
C           13.18080156460311       -0.81131043609851        0.50718397635071
F           13.92241251761728       -1.58562066021515       -0.34464365192054
C           13.84175266578925       -0.01319267578099        1.42074200964165
C           13.07333405353545        0.77095264925985        2.26663393493808
C           11.69474947997109        0.74299836706759        2.18655564264373
C            6.70703408796502       -2.19546510762834        0.25526361667392
C            5.32793210593681       -2.27345158597947        0.25533495110910
H            2.57872517658645       -0.82266330723309       -2.70091898398801
H            2.49693048673837       -2.25269369778291       -1.84380764120289
H            3.91677643557974       -1.38522229841454       -1.87196954587860
H            1.39045186527272       -0.54724044638277       -0.57820196776031
H            2.84817097330562        0.45641148641394       -0.69480853075381
H            2.72699575963916       -2.28619400125373        0.65218312538224
H            2.65904642420091       -0.73992613839599        1.49132528457354
H            4.62173349841797        0.86127927495998        1.28215791308839
H            7.05434971935099        1.00636654326850        1.27457789366264
H            9.28097136347498       -1.83501648777890        0.13484674116167
H            9.12600666766417        0.72402312499441        1.79647467362213
H           11.36274482993026       -1.50039349672789       -0.33779929113114
H           14.91869166525810       -0.00951254222336        1.45767603561312
H           13.56087226966695        1.40686782041293        2.98845901724894
H           11.11270801412670        1.36020382382525        2.85399912733531
H            7.29323011180580       -3.05813912834863       -0.02678312396549
H            4.85616361245573       -3.20729895928380       -0.01266449084790

          :  Hamiltonian                  GFN2-xTB          :
         :: total energy             -50.234689975501 Eh    ::
         :: gradient norm              0.000983721798 Eh/a0 ::
         :: HOMO-LUMO gap              2.787189037811 eV    ::
         :: SCC energy               -51.079376381322 Eh    ::
         :: -> dispersion             -0.031492694422 Eh    ::
         :: -> Gsolv                  -0.125128562620 Eh    ::
         :: repulsion energy           0.844968070197 Eh    ::

    * Orbital Energies and Occupations

         #    Occupation            Energy/Eh            Energy/eV
      -------------------------------------------------------------
         1        2.0000           -0.8223803             -22.3781
       ...           ...                  ...                  ...
        34        2.0000           -0.4741527             -12.9024
        35        2.0000           -0.4676125             -12.7244
        36        2.0000           -0.4560922             -12.4109
        37        2.0000           -0.4512221             -12.2784
        38        2.0000           -0.4446905             -12.1006
        39        2.0000           -0.4398622             -11.9693
        40        2.0000           -0.4352819             -11.8446
        41        2.0000           -0.4254014             -11.5758
        42        2.0000           -0.4188278             -11.3969
        43        2.0000           -0.4164437             -11.3320
        44        2.0000           -0.4129933             -11.2381
        45        2.0000           -0.4077507             -11.0955
        46        2.0000           -0.3768709             -10.2552 (HOMO)
        47                         -0.2744436              -7.4680 (LUMO)
        48                         -0.2335842              -6.3561
        49                         -0.2253937              -6.1333
        50                         -0.2194783              -5.9723
        51                         -0.1700121              -4.6263
        52                         -0.0965508              -2.6273
        53                         -0.0783473              -2.1319
        54                         -0.0463444              -1.2611
        55                          0.0279841               0.7615
        56                          0.0588437               1.6012
        57                          0.0816639               2.2222
       ...                                ...                  ...
        89                          0.6932981              18.8656
      -------------------------------------------------------------
                  HL-Gap            0.1024273 Eh            2.7872 eV

     #   Z          covCN         q      C6AA      α(0)
     1   7 N        3.485    -0.155    24.336     7.327
     2   6 C        3.733    -0.037    21.318     6.590
     3   6 C        3.808    -0.095    22.302     6.722
     4   6 C        2.970     0.010    27.797     8.648
     5   6 C        2.922    -0.045    29.114     8.848
     6   6 C        2.922    -0.037    28.923     8.819
     7   6 C        2.971     0.010    27.786     8.646
     8   6 C        2.902    -0.039    28.964     8.824
     9   6 C        2.902    -0.044    29.094     8.844
    10   6 C        2.975     0.019    27.577     8.614
    11   6 C        2.920    -0.058    29.441     8.898
    12   6 C        2.787     0.166    24.404     8.092
    13   9 F        0.786    -0.286    12.160     4.119
    14   6 C        2.916    -0.056    29.379     8.888
    15   6 C        2.923    -0.033    28.834     8.806
    16   6 C        2.927    -0.045    29.113     8.849
    17   6 C        2.926    -0.040    28.987     8.829
    18   6 C        2.920    -0.053    29.323     8.880
    19   1 H        0.859     0.317     0.665     1.278
    20   1 H        0.859     0.309     0.686     1.298
    21   1 H        0.859     0.294     0.732     1.340
    22   1 H        0.925     0.117     1.639     2.002
    23   1 H        0.925     0.110     1.698     2.038
    24   1 H        0.925     0.081     1.969     2.194
    25   1 H        0.925     0.082     1.958     2.188
    26   1 H        0.926     0.049     2.327     2.385
    27   1 H        0.926     0.033     2.543     2.494
    28   1 H        0.925     0.041     2.437     2.441
    29   1 H        0.926     0.051     2.306     2.375
    30   1 H        0.926     0.066     2.130     2.282
    31   1 H        0.926     0.058     2.224     2.332
    32   1 H        0.926     0.057     2.230     2.335
    33   1 H        0.926     0.060     2.204     2.322
    34   1 H        0.926     0.033     2.543     2.494
    35   1 H        0.926     0.058     2.220     2.330

Wiberg/Mayer (AO) data.
largest (>0.10) Wiberg bond orders for each atom

     #   Z sym  total        # sym  WBO       # sym  WBO       # sym  WBO
 ---------------------------------------------------------------------------
     1   7 N    3.657 --     2 C    0.965    21 H    0.893    20 H    0.889
                            19 H    0.886
     2   6 C    3.924 --     3 C    0.998    23 H    0.966     1 N    0.965
                            22 H    0.964
     3   6 C    3.988 --     4 C    1.011     2 C    0.998    24 H    0.968
                            25 H    0.959
     4   6 C    3.977 --    18 C    1.404     5 C    1.394     3 C    1.011
     5   6 C    3.990 --     6 C    1.472     4 C    1.394    26 H    0.967
                            17 C    0.102
     6   6 C    3.978 --     5 C    1.472     7 C    1.359    27 H    0.966
                            18 C    0.101
     7   6 C    3.989 --    17 C    1.368     6 C    1.359     8 C    1.110
     8   6 C    3.989 --     9 C    1.763     7 C    1.110    28 H    0.959
     9   6 C    3.986 --     8 C    1.763    10 C    1.110    29 H    0.958
    10   6 C    3.987 --    16 C    1.365    11 C    1.361     9 C    1.110
    11   6 C    3.978 --    12 C    1.426    10 C    1.361    30 H    0.961
                            15 C    0.104
    12   6 C    3.860 --    11 C    1.426    14 C    1.395    13 F    0.909
    13   9 F    1.025 --    12 C    0.909
    14   6 C    3.977 --    15 C    1.424    12 C    1.395    31 H    0.967
    15   6 C    3.989 --    16 C    1.462    14 C    1.424    32 H    0.969
                            11 C    0.104
    16   6 C    3.976 --    15 C    1.462    10 C    1.365    33 H    0.967
    17   6 C    3.981 --    18 C    1.457     7 C    1.368    34 H    0.969
                             5 C    0.102
    18   6 C    3.988 --    17 C    1.457     4 C    1.404    35 H    0.966
                             6 C    0.101
    19   1 H    0.900 --     1 N    0.886
    20   1 H    0.904 --     1 N    0.889
    21   1 H    0.914 --     1 N    0.893
    22   1 H    0.986 --     2 C    0.964
    23   1 H    0.988 --     2 C    0.966
    24   1 H    0.993 --     3 C    0.968
    25   1 H    0.992 --     3 C    0.959
    26   1 H    0.997 --     5 C    0.967
    27   1 H    0.999 --     6 C    0.966
    28   1 H    0.998 --     8 C    0.959
    29   1 H    0.997 --     9 C    0.958
    30   1 H    0.996 --    11 C    0.961
    31   1 H    0.996 --    14 C    0.967
    32   1 H    0.996 --    15 C    0.969
    33   1 H    0.996 --    16 C    0.967
    34   1 H    0.999 --    17 C    0.969
    35   1 H    0.996 --    18 C    0.966
 ---------------------------------------------------------------------------

molecular dipole:
                 x           y           z       tot (Debye)
 q only:        3.869      -1.770      -2.513
   full:        4.336      -1.834      -2.529      13.584

           -------------------------------------------------
          | TOTAL ENERGY              -50.234689975501 Eh   |
          | GRADIENT NORM               0.000983721798 Eh/α |
          | HOMO-LUMO GAP               2.787189037811 eV   |
           -------------------------------------------------

 * finished run on 2023/01/24 at 15:30:59.383
