   * xtb version 6.5.1 (fef0646) compiled by 'conda@b96dff2e9fd6' on 2023-01-04
          program call               : xtb init.xyz --opt -c 0 -u 0 -P 16

   ID    Z sym.   atoms
    1    7 N      1
    2    6 C      2-7
    3   17 Cl     8
    4    1 H      9-24

          :  Hamiltonian                  GFN2-xTB          :
 * total energy  :   -28.4606293 Eh     change       -0.1353332E-08 Eh
 * total energy  :   -28.4668366 Eh     change       -0.6207344E-02 Eh
 * total energy  :   -28.4719756 Eh     change       -0.5138972E-02 Eh
 * total energy  :   -28.4752730 Eh     change       -0.3297391E-02 Eh
 * total energy  :   -28.4777475 Eh     change       -0.2474514E-02 Eh
 * total energy  :   -28.4796092 Eh     change       -0.1861671E-02 Eh
 * total energy  :   -28.4802208 Eh     change       -0.6115968E-03 Eh
 * total energy  :   -28.4804474 Eh     change       -0.2265949E-03 Eh
 * total energy  :   -28.4805479 Eh     change       -0.1005349E-03 Eh
 * total energy  :   -28.4806056 Eh     change       -0.5769230E-04 Eh
 * total energy  :   -28.4808374 Eh     change       -0.5375388E-04 Eh
 * total energy  :   -28.4808544 Eh     change       -0.1695721E-04 Eh
 * total energy  :   -28.4808795 Eh     change       -0.2508851E-04 Eh
 * total energy  :   -28.4809179 Eh     change       -0.3836515E-04 Eh
 * total energy  :   -28.4809411 Eh     change       -0.2324572E-04 Eh
 * total energy  :   -28.4809674 Eh     change       -0.2630634E-04 Eh
 * total energy  :   -28.4809763 Eh     change       -0.8924457E-05 Eh
 * total energy  :   -28.4809834 Eh     change       -0.7116116E-05 Eh
 * total energy  :   -28.4809872 Eh     change       -0.3771723E-05 Eh
   *** GEOMETRY OPTIMIZATION CONVERGED AFTER 22 ITERATIONS ***

 final structure:
================
24
 xtb: 6.5.1 (fef0646)
N            1.09928229892731       -0.46862296081684       -0.06004776501887
C            2.55748938239016       -0.35320435771873       -0.05843610333593
C            3.06718356303278       -0.17380282372695        1.36811519698255
C            4.58020514754172        0.02378327469878        1.40660892858149
C            5.09283807460353        0.22666188505845        2.83019131933374
C            6.60965172457865        0.39612938224983        2.87380118294232
C            7.11325960514278        0.64471053270905        4.29014869903975
Cl          -0.10955905651513        1.95124659038719        1.06702426291181
H            0.73884051528704       -0.57781057139592       -1.00148647838366
H            0.46933750246561        0.82000328936971        0.54399220174002
H            0.80134818108335       -1.26153934480212        0.49895278076527
H            2.81651029664466        0.52554285000956       -0.65354721082532
H            3.04003986547882       -1.22929819978967       -0.51563181850251
H            2.80027189945066       -1.05259045442813        1.96023684305291
H            2.57048327793259        0.69054195011856        1.80951537227087
H            4.84414434377934        0.89423283174998        0.80227769019203
H            5.07330061840223       -0.84627759534913        0.96529195648252
H            4.80862580676544       -0.63124340253209        3.44405950044218
H            4.61812428443588        1.11129199702450        3.25953727512372
H            6.89630657657745        1.23451104307520        2.23499419160335
H            7.08435144078987       -0.50225772972751        2.47211286003565
H            6.67609356250441        1.55461024675036        4.69518295765006
H            8.19560147212626        0.75044893659584        4.29909520958820
H            6.84366961657524       -0.18315736951020        4.94238094732834

          :  Hamiltonian                  GFN2-xTB          :
         :: total energy             -28.480987224153 Eh    ::
         :: gradient norm              0.000307086240 Eh/a0 ::
         :: HOMO-LUMO gap              9.164632456114 eV    ::
         :: SCC energy               -28.816120537184 Eh    ::
         :: -> dispersion             -0.014176756609 Eh    ::
         :: repulsion energy           0.335166846123 Eh    ::

    * Orbital Energies and Occupations

         #    Occupation            Energy/Eh            Energy/eV
      -------------------------------------------------------------
         1        2.0000           -1.0156036             -27.6360
       ...           ...                  ...                  ...
        14        2.0000           -0.4956022             -13.4860
        15        2.0000           -0.4852418             -13.2041
        16        2.0000           -0.4787481             -13.0274
        17        2.0000           -0.4715188             -12.8307
        18        2.0000           -0.4550628             -12.3829
        19        2.0000           -0.4541417             -12.3578
        20        2.0000           -0.4375746             -11.9070
        21        2.0000           -0.4347963             -11.8314
        22        2.0000           -0.4312185             -11.7341
        23        2.0000           -0.4239742             -11.5369
        24        2.0000           -0.3982709             -10.8375
        25        2.0000           -0.3927446             -10.6871
        26        2.0000           -0.3927115             -10.6862 (HOMO)
        27                         -0.0559174              -1.5216 (LUMO)
        28                          0.0097355               0.2649
        29                          0.0628421               1.7100
        30                          0.0685312               1.8648
        31                          0.0689655               1.8766
        32                          0.0745256               2.0279
        33                          0.0747185               2.0332
        34                          0.0939040               2.5553
        35                          0.1053457               2.8666
        36                          0.1079889               2.9385
        37                          0.1210983               3.2953
       ...                                ...                  ...
        53                          0.3127503               8.5104
      -------------------------------------------------------------
                  HL-Gap            0.3367940 Eh            9.1646 eV

     #   Z          covCN         q      C6AA      α(0)
     1   7 N        2.698    -0.305    27.848     7.838
     2   6 C        3.732     0.007    20.545     6.470
     3   6 C        3.804    -0.073    21.902     6.663
     4   6 C        3.803    -0.060    21.651     6.624
     5   6 C        3.803    -0.061    21.669     6.627
     6   6 C        3.801    -0.053    21.535     6.607
     7   6 C        3.752    -0.103    22.532     6.769
     8  17 Cl       0.837    -0.488   115.224    16.421
     9   1 H        0.860     0.166     1.298     1.785
    10   1 H        0.904     0.332     0.623     1.235
    11   1 H        0.860     0.167     1.290     1.779
    12   1 H        0.924     0.052     2.296     2.370
    13   1 H        0.923     0.024     2.678     2.559
    14   1 H        0.924     0.037     2.487     2.466
    15   1 H        0.924     0.062     2.174     2.306
    16   1 H        0.924     0.035     2.519     2.482
    17   1 H        0.924     0.030     2.589     2.517
    18   1 H        0.924     0.032     2.557     2.501
    19   1 H        0.924     0.037     2.486     2.466
    20   1 H        0.924     0.030     2.580     2.512
    21   1 H        0.924     0.028     2.608     2.526
    22   1 H        0.925     0.036     2.509     2.477
    23   1 H        0.925     0.034     2.530     2.487
    24   1 H        0.925     0.034     2.529     2.487

Wiberg/Mayer (AO) data.
largest (>0.10) Wiberg bond orders for each atom

     #   Z sym  total        # sym  WBO       # sym  WBO       # sym  WBO
 ---------------------------------------------------------------------------
     1   7 N    3.241 --     2 C    1.004     9 H    0.959    11 H    0.958
                            10 H    0.209
     2   6 C    3.973 --     3 C    1.006     1 N    1.004    12 H    0.974
                            13 H    0.973
     3   6 C    3.993 --     4 C    1.006     2 C    1.006    14 H    0.976
                            15 H    0.973
     4   6 C    3.997 --     5 C    1.007     3 C    1.006    17 H    0.977
                            16 H    0.977
     5   6 C    3.996 --     6 C    1.008     4 C    1.007    18 H    0.977
                            19 H    0.977
     6   6 C    3.998 --     7 C    1.019     5 C    1.008    21 H    0.979
                            20 H    0.978
     7   6 C    3.997 --     6 C    1.019    24 H    0.988    22 H    0.988
                            23 H    0.987
     8  17 Cl   0.765 --    10 H    0.677
     9   1 H    0.972 --     1 N    0.959
    10   1 H    0.890 --     8 Cl   0.677     1 N    0.209
    11   1 H    0.972 --     1 N    0.958
    12   1 H    0.997 --     2 C    0.974
    13   1 H    0.999 --     2 C    0.973
    14   1 H    0.999 --     3 C    0.976
    15   1 H    0.996 --     3 C    0.973
    16   1 H    0.999 --     4 C    0.977
    17   1 H    0.999 --     4 C    0.977
    18   1 H    0.999 --     5 C    0.977
    19   1 H    0.999 --     5 C    0.977
    20   1 H    0.999 --     6 C    0.978
    21   1 H    0.999 --     6 C    0.979
    22   1 H    0.999 --     7 C    0.988
    23   1 H    0.998 --     7 C    0.987
    24   1 H    0.999 --     7 C    0.988
 ---------------------------------------------------------------------------

molecular dipole:
                 x           y           z       tot (Debye)
 q only:        1.022      -1.529      -0.587
   full:        0.837      -1.519      -0.633       4.692

           -------------------------------------------------
          | TOTAL ENERGY              -28.480987224153 Eh   |
          | GRADIENT NORM               0.000307086240 Eh/α |
          | HOMO-LUMO GAP               9.164632456114 eV   |
           -------------------------------------------------

 * finished run on 2023/01/23 at 14:15:30.754
