   * xtb version 6.5.1 (fef0646) compiled by 'conda@b96dff2e9fd6' on 2023-01-04
          program call               : xtb init.xyz --opt -c 1 -u 0 -P 16 --alpb water

   ID    Z sym.   atoms
    1    7 N      1
    2    6 C      2-7, 9, 10
    3   17 Cl     8
    4    1 H      11-21

      * Solvation model:               ALPB
        Solvent                        water
        Solvent mass                       1.8000E+01 g/mol
          :  Hamiltonian                  GFN2-xTB          :
 * total energy  :   -29.8849255 Eh     change       -0.1680313E-08 Eh
 * total energy  :   -29.8871281 Eh     change       -0.2202549E-02 Eh
 * total energy  :   -29.8875081 Eh     change       -0.3800212E-03 Eh
 * total energy  :   -29.8876057 Eh     change       -0.9767160E-04 Eh
 * total energy  :   -29.8876534 Eh     change       -0.4761223E-04 Eh
 * total energy  :   -29.8876775 Eh     change       -0.2415852E-04 Eh
 * total energy  :   -29.8876946 Eh     change       -0.1704978E-04 Eh
 * total energy  :   -29.8877310 Eh     change       -0.3642801E-04 Eh
 * total energy  :   -29.8877640 Eh     change       -0.3303593E-04 Eh
 * total energy  :   -29.8877999 Eh     change       -0.3583037E-04 Eh
 * total energy  :   -29.8879565 Eh     change       -0.3437312E-04 Eh
 * total energy  :   -29.8879833 Eh     change       -0.2679434E-04 Eh
 * total energy  :   -29.8880096 Eh     change       -0.2637380E-04 Eh
 * total energy  :   -29.8880255 Eh     change       -0.1581197E-04 Eh
 * total energy  :   -29.8880426 Eh     change       -0.1715724E-04 Eh
 * total energy  :   -29.8880570 Eh     change       -0.1442673E-04 Eh
 * total energy  :   -29.8880660 Eh     change       -0.8916644E-05 Eh
 * total energy  :   -29.8880734 Eh     change       -0.7439980E-05 Eh
 * total energy  :   -29.8880772 Eh     change       -0.3775476E-05 Eh
   *** GEOMETRY OPTIMIZATION CONVERGED AFTER 22 ITERATIONS ***

 final structure:
================
21
 xtb: 6.5.1 (fef0646)
N            2.78212594229004        2.98476790511194        0.97721106993151
C            2.49174540368158        1.55963734916640        0.68908970000036
C            3.03952870367283        1.18577766845336       -0.68754311767420
C            4.54413403953536        1.25363466612831       -0.71783488542366
C            5.29980699674549        0.27962571727722       -0.07375576315765
C            6.68162537270171        0.33393074547255       -0.07820834711532
C            7.31682673449611        1.37503880211505       -0.73553504804721
Cl           9.07071262070732        1.44010628992906       -0.76016113317372
C            6.58677749789765        2.35622056998472       -1.38244173508000
C            5.20313278970913        2.29195107618082       -1.36505706821243
H            2.48067846496334        3.23851699970429        1.92436686089207
H            2.29947184953895        3.58929830310369        0.30223644731208
H            3.79231020172345        3.15172923459098        0.89233831698450
H            1.41482158398105        1.39937555971362        0.71564528156063
H            2.96140828716505        0.93955689587862        1.45185531723987
H            2.62471525650109        1.84490357719127       -1.44915452258723
H            2.72422820593909        0.16948870160629       -0.92032596891455
H            4.81033437431408       -0.54190212320645        0.42594697235414
H            7.26520872400050       -0.42599391405883        0.41540113358229
H            7.09589030454488        3.15550805707016       -1.89552065792503
H            4.64378664589112        3.05260791858717       -1.88765285254635

          :  Hamiltonian                  GFN2-xTB          :
         :: total energy             -29.888077176236 Eh    ::
         :: gradient norm              0.000247929214 Eh/a0 ::
         :: HOMO-LUMO gap              4.405284644222 eV    ::
         :: SCC energy               -30.328303290132 Eh    ::
         :: -> dispersion             -0.016644946140 Eh    ::
         :: -> Gsolv                  -0.129321465329 Eh    ::
         :: repulsion energy           0.440145941629 Eh    ::

    * Orbital Energies and Occupations

         #    Occupation            Energy/Eh            Energy/eV
      -------------------------------------------------------------
         1        2.0000           -1.0658589             -29.0035
       ...           ...                  ...                  ...
        15        2.0000           -0.5088050             -13.8453
        16        2.0000           -0.5020638             -13.6619
        17        2.0000           -0.4934975             -13.4288
        18        2.0000           -0.4862840             -13.2325
        19        2.0000           -0.4854802             -13.2106
        20        2.0000           -0.4733977             -12.8818
        21        2.0000           -0.4588833             -12.4869
        22        2.0000           -0.4461506             -12.1404
        23        2.0000           -0.4381324             -11.9222
        24        2.0000           -0.4361823             -11.8691
        25        2.0000           -0.4208819             -11.4528
        26        2.0000           -0.4161364             -11.3236
        27        2.0000           -0.3978312             -10.8255 (HOMO)
        28                         -0.2359399              -6.4203 (LUMO)
        29                         -0.2347834              -6.3888
        30                         -0.1357281              -3.6934
        31                         -0.1094472              -2.9782
        32                         -0.0431524              -1.1742
        33                          0.0115896               0.3154
        34                          0.0150671               0.4100
        35                          0.0151627               0.4126
        36                          0.0268659               0.7311
        37                          0.0615761               1.6756
        38                          0.0801818               2.1819
       ...                                ...                  ...
        56                          0.6404217              17.4268
      -------------------------------------------------------------
                  HL-Gap            0.1618912 Eh            4.4053 eV

     #   Z          covCN         q      C6AA      α(0)
     1   7 N        3.485    -0.156    24.363     7.331
     2   6 C        3.733    -0.039    21.362     6.597
     3   6 C        3.809    -0.099    22.378     6.734
     4   6 C        2.968     0.015    27.673     8.629
     5   6 C        2.927    -0.041    29.030     8.836
     6   6 C        2.946    -0.041    29.019     8.835
     7   6 C        2.889     0.103    25.728     8.316
     8  17 Cl       0.950    -0.261   107.444    15.858
     9   6 C        2.945    -0.043    29.068     8.843
    10   6 C        2.927    -0.048    29.189     8.860
    11   1 H        0.859     0.317     0.665     1.277
    12   1 H        0.859     0.311     0.681     1.293
    13   1 H        0.859     0.295     0.727     1.336
    14   1 H        0.925     0.121     1.606     1.982
    15   1 H        0.925     0.113     1.673     2.023
    16   1 H        0.925     0.090     1.883     2.146
    17   1 H        0.925     0.092     1.862     2.134
    18   1 H        0.926     0.075     2.033     2.230
    19   1 H        0.926     0.055     2.257     2.349
    20   1 H        0.926     0.060     2.201     2.320
    21   1 H        0.926     0.082     1.956     2.187

Wiberg/Mayer (AO) data.
largest (>0.10) Wiberg bond orders for each atom

     #   Z sym  total        # sym  WBO       # sym  WBO       # sym  WBO
 ---------------------------------------------------------------------------
     1   7 N    3.656 --     2 C    0.966    13 H    0.893    12 H    0.888
                            11 H    0.886
     2   6 C    3.925 --     3 C    0.999     1 N    0.966    15 H    0.965
                            14 H    0.963
     3   6 C    3.986 --     4 C    1.011     2 C    0.999    16 H    0.967
                            17 H    0.956
     4   6 C    3.987 --    10 C    1.413     5 C    1.403     3 C    1.011
     5   6 C    3.985 --     6 C    1.447     4 C    1.403    18 H    0.964
                             9 C    0.111
     6   6 C    3.986 --     5 C    1.447     7 C    1.404    19 H    0.967
                            10 C    0.108
     7   6 C    3.880 --     9 C    1.413     6 C    1.404     8 Cl   0.921
     8  17 Cl   1.040 --     7 C    0.921
     9   6 C    3.984 --    10 C    1.433     7 C    1.413    20 H    0.967
                             5 C    0.111
    10   6 C    3.983 --     9 C    1.433     4 C    1.413    21 H    0.962
                             6 C    0.108
    11   1 H    0.899 --     1 N    0.886
    12   1 H    0.903 --     1 N    0.888
    13   1 H    0.913 --     1 N    0.893
    14   1 H    0.985 --     2 C    0.963
    15   1 H    0.987 --     2 C    0.965
    16   1 H    0.992 --     3 C    0.967
    17   1 H    0.991 --     3 C    0.956
    18   1 H    0.994 --     5 C    0.964
    19   1 H    0.997 --     6 C    0.967
    20   1 H    0.996 --     9 C    0.967
    21   1 H    0.993 --    10 C    0.962
 ---------------------------------------------------------------------------

molecular dipole:
                 x           y           z       tot (Debye)
 q only:        3.352       5.310       1.741
   full:        4.297       5.340       1.671      17.932

           -------------------------------------------------
          | TOTAL ENERGY              -29.888077176236 Eh   |
          | GRADIENT NORM               0.000247929214 Eh/α |
          | HOMO-LUMO GAP               4.405284644222 eV   |
           -------------------------------------------------

 * finished run on 2023/01/24 at 15:46:15.850
