   * xtb version 6.5.1 (fef0646) compiled by 'conda@b96dff2e9fd6' on 2023-01-04
          program call               : xtb init.xyz --opt -c 1 -u 0 -P 16 --input xtb.inp

   ID    Z sym.   atoms
    1    7 N      1
    2    6 C      2-7, 9, 10
    3   17 Cl     8
    4    1 H      11-21

          :  Hamiltonian                  GFN2-xTB          :
 * total energy  :   -29.7684472 Eh     change       -0.1021693E-08 Eh
 * total energy  :   -29.7703534 Eh     change       -0.1906137E-02 Eh
 * total energy  :   -29.7707321 Eh     change       -0.3787365E-03 Eh
 * total energy  :   -29.7709159 Eh     change       -0.1838012E-03 Eh
 * total energy  :   -29.7710907 Eh     change       -0.1748573E-03 Eh
 * total energy  :   -29.7712420 Eh     change       -0.1512107E-03 Eh
 * total energy  :   -29.7714205 Eh     change       -0.1785224E-03 Eh
 * total energy  :   -29.7716188 Eh     change       -0.1983472E-03 Eh
 * total energy  :   -29.7717891 Eh     change       -0.1702723E-03 Eh
 * total energy  :   -29.7719057 Eh     change       -0.1165785E-03 Eh
 * total energy  :   -29.7727866 Eh     change       -0.1222087E-03 Eh
 * total energy  :   -29.7728333 Eh     change       -0.4672258E-04 Eh
 * total energy  :   -29.7728564 Eh     change       -0.2305231E-04 Eh
 * total energy  :   -29.7728784 Eh     change       -0.2204511E-04 Eh
 * total energy  :   -29.7729019 Eh     change       -0.2349347E-04 Eh
 * total energy  :   -29.7729273 Eh     change       -0.2534709E-04 Eh
 * total energy  :   -29.7729364 Eh     change       -0.9163597E-05 Eh
 * total energy  :   -29.7729435 Eh     change       -0.7120282E-05 Eh
 * total energy  :   -29.7729455 Eh     change       -0.1982872E-05 Eh
   *** GEOMETRY OPTIMIZATION CONVERGED AFTER 26 ITERATIONS ***

 final structure:
================
21
 xtb: 6.5.1 (fef0646)
N            3.04484797426949       -0.00199371907824        3.65016600034389
C            2.50304699016769       -0.96118358143647        2.64238479842138
C            2.98646391132667       -0.51809883779827        1.25992105522912
C            4.49222286910388       -0.44598055596215        1.27234191027097
C            5.25915051916453       -1.57309041901782        0.99762437778688
C            6.63666477407800       -1.53132243287192        1.09267109814122
C            7.27008640548719       -0.35407772316645        1.47770644371242
Cl           8.98401953472622       -0.30115892555169        1.60778420539755
C            6.52031990535477        0.78301862892770        1.74669156179266
C            5.13864667523015        0.73186489022216        1.65129299107579
H            3.06555097422271       -0.39359402422861        4.59688863883737
H            2.49613736418595        0.86525523601916        3.66106111312685
H            4.01665692665581        0.22892053771404        3.32016538805228
H            1.41540582077386       -0.98653616117937        2.70151171351631
H            2.89577596685948       -1.95334713780537        2.86778913531438
H            2.55606606527517        0.45084965919373        1.00363881860518
H            2.64587346757823       -1.24113782997322        0.52073391537993
H            4.77467587962799       -2.48738485913575        0.69074765910172
H            7.22486497023708       -2.40499377030408        0.86471414911230
H            7.01478094421951        1.70161808571389        2.01740183908384
H            4.57589206145594        1.64697293971820        1.78758318769781

          :  Hamiltonian                  GFN2-xTB          :
         :: total energy             -29.772945529729 Eh    ::
         :: gradient norm              0.000186075462 Eh/a0 ::
         :: HOMO-LUMO gap              3.831664687639 eV    ::
         :: SCC energy               -30.206447105621 Eh    ::
         :: -> dispersion             -0.017101404511 Eh    ::
         :: repulsion energy           0.433412062210 Eh    ::

    * Orbital Energies and Occupations

         #    Occupation            Energy/Eh            Energy/eV
      -------------------------------------------------------------
         1        2.0000           -1.1546271             -31.4190
       ...           ...                  ...                  ...
        15        2.0000           -0.6563754             -17.8609
        16        2.0000           -0.6478542             -17.6290
        17        2.0000           -0.6333477             -17.2343
        18        2.0000           -0.6237871             -16.9741
        19        2.0000           -0.6187231             -16.8363
        20        2.0000           -0.6135392             -16.6953
        21        2.0000           -0.6130779             -16.6827
        22        2.0000           -0.5712361             -15.5441
        23        2.0000           -0.5692283             -15.4895
        24        2.0000           -0.5635304             -15.3344
        25        2.0000           -0.5479205             -14.9097
        26        2.0000           -0.5204740             -14.1628
        27        2.0000           -0.5106570             -13.8957 (HOMO)
        28                         -0.3698459             -10.0640 (LUMO)
        29                         -0.3667812              -9.9806
        30                         -0.2509484              -6.8287
        31                         -0.2425787              -6.6009
        32                         -0.2327696              -6.3340
        33                         -0.1487560              -4.0479
        34                         -0.0948182              -2.5801
        35                         -0.0878795              -2.3913
        36                         -0.0864594              -2.3527
        37                         -0.0816177              -2.2209
        38                         -0.0813930              -2.2148
       ...                                ...                  ...
        56                          0.5033722              13.6975
      -------------------------------------------------------------
                  HL-Gap            0.1408111 Eh            3.8317 eV

     #   Z          covCN         q      C6AA      α(0)
     1   7 N        3.483    -0.142    24.067     7.286
     2   6 C        3.734    -0.031    21.219     6.574
     3   6 C        3.809    -0.093    22.268     6.717
     4   6 C        2.971    -0.009    28.232     8.716
     5   6 C        2.923    -0.036    28.886     8.814
     6   6 C        2.953    -0.032    28.796     8.802
     7   6 C        2.885     0.107    25.636     8.301
     8  17 Cl       0.967    -0.125   103.047    15.530
     9   6 C        2.953    -0.040    28.982     8.830
    10   6 C        2.923    -0.062    29.546     8.914
    11   1 H        0.859     0.263     0.834     1.431
    12   1 H        0.859     0.265     0.827     1.425
    13   1 H        0.857     0.279     0.779     1.383
    14   1 H        0.925     0.106     1.729     2.056
    15   1 H        0.924     0.106     1.731     2.058
    16   1 H        0.924     0.075     2.034     2.230
    17   1 H        0.925     0.098     1.800     2.098
    18   1 H        0.926     0.064     2.153     2.295
    19   1 H        0.926     0.083     1.952     2.185
    20   1 H        0.926     0.076     2.018     2.222
    21   1 H        0.925     0.046     2.365     2.405

Wiberg/Mayer (AO) data.
largest (>0.10) Wiberg bond orders for each atom

     #   Z sym  total        # sym  WBO       # sym  WBO       # sym  WBO
 ---------------------------------------------------------------------------
     1   7 N    3.666 --     2 C    0.934    11 H    0.917    12 H    0.915
                            13 H    0.845
     2   6 C    3.897 --     3 C    0.994    15 H    0.968    14 H    0.967
                             1 N    0.934
     3   6 C    3.979 --     4 C    1.006     2 C    0.994    16 H    0.968
                            17 H    0.959
     4   6 C    3.987 --     5 C    1.400    10 C    1.385     3 C    1.006
     5   6 C    3.989 --     6 C    1.458     4 C    1.400    18 H    0.965
                             9 C    0.106
     6   6 C    3.986 --     5 C    1.458     7 C    1.383    19 H    0.964
                            10 C    0.102
     7   6 C    3.928 --     9 C    1.397     6 C    1.383     8 Cl   1.018
     8  17 Cl   1.175 --     7 C    1.018
     9   6 C    3.986 --    10 C    1.433     7 C    1.397    20 H    0.965
                             5 C    0.106
    10   6 C    3.989 --     9 C    1.433     4 C    1.385    21 H    0.960
                             6 C    0.102
    11   1 H    0.931 --     1 N    0.917
    12   1 H    0.930 --     1 N    0.915
    13   1 H    0.922 --     1 N    0.845
    14   1 H    0.988 --     2 C    0.967
    15   1 H    0.989 --     2 C    0.968
    16   1 H    0.994 --     3 C    0.968
    17   1 H    0.990 --     3 C    0.959
    18   1 H    0.996 --     5 C    0.965
    19   1 H    0.993 --     6 C    0.964
    20   1 H    0.994 --     9 C    0.965
    21   1 H    0.998 --    10 C    0.960
 ---------------------------------------------------------------------------

molecular dipole:
                 x           y           z       tot (Debye)
 q only:        5.670      -0.476       5.978
   full:        6.153      -0.337       6.108      22.054

           -------------------------------------------------
          | TOTAL ENERGY              -29.772945529729 Eh   |
          | GRADIENT NORM               0.000186075462 Eh/α |
          | HOMO-LUMO GAP               3.831664687639 eV   |
           -------------------------------------------------

 * finished run on 2023/01/23 at 19:37:39.774
