   * xtb version 6.5.1 (fef0646) compiled by 'conda@b96dff2e9fd6' on 2023-01-04
          program call               : xtb init.xyz --opt -c 0 -u 0 -P 16 --alpb water

   ID    Z sym.   atoms
    1    7 N      1
    2    6 C      2-7, 9, 10
    3   17 Cl     8, 11
    4    1 H      12-22

      * Solvation model:               ALPB
        Solvent                        water
        Solvent mass                       1.8000E+01 g/mol
          :  Hamiltonian                  GFN2-xTB          :
 * total energy  :   -34.7925980 Eh     change       -0.5330634E-09 Eh
 * total energy  :   -34.7971228 Eh     change       -0.4524711E-02 Eh
 * total energy  :   -34.7982017 Eh     change       -0.1078900E-02 Eh
 * total energy  :   -34.7984388 Eh     change       -0.2371651E-03 Eh
 * total energy  :   -34.7985147 Eh     change       -0.7592363E-04 Eh
 * total energy  :   -34.7985597 Eh     change       -0.4493315E-04 Eh
 * total energy  :   -34.7986094 Eh     change       -0.4967256E-04 Eh
 * total energy  :   -34.7986708 Eh     change       -0.6147715E-04 Eh
 * total energy  :   -34.7987428 Eh     change       -0.7192716E-04 Eh
 * total energy  :   -34.7988231 Eh     change       -0.8037922E-04 Eh
 * total energy  :   -34.7996345 Eh     change       -0.5218280E-04 Eh
 * total energy  :   -34.7996668 Eh     change       -0.3230689E-04 Eh
 * total energy  :   -34.7996828 Eh     change       -0.1603454E-04 Eh
 * total energy  :   -34.7996918 Eh     change       -0.8951489E-05 Eh
 * total energy  :   -34.7997153 Eh     change       -0.2353145E-04 Eh
 * total energy  :   -34.7997336 Eh     change       -0.1832543E-04 Eh
 * total energy  :   -34.7997472 Eh     change       -0.1359800E-04 Eh
 * total energy  :   -34.7997607 Eh     change       -0.1344031E-04 Eh
 * total energy  :   -34.7997630 Eh     change       -0.2345408E-05 Eh
   *** GEOMETRY OPTIMIZATION CONVERGED AFTER 28 ITERATIONS ***

 final structure:
================
22
 xtb: 6.5.1 (fef0646)
N            1.09721661252299        0.37551410503027       -0.01001693457183
C            2.56824439906555        0.32821860741816        0.08855072549378
C            3.16872431798041        1.73073220776728       -0.04158230701540
C            4.66843790237795        1.65589028845825        0.03811035978445
C            5.41586442082495        1.33473118450111       -1.08849535648126
C            6.79395223736489        1.23384917983246       -1.02385863627627
C            7.42894479796752        1.45683704093154        0.18550440330006
Cl           9.17054607773953        1.33461231073243        0.27742801982831
C            6.70774560080988        1.77629987655886        1.32204103931031
C            5.32938886417270        1.87124406630680        1.24025870036375
Cl          -0.03025699324445       -2.45137344209390        0.05556715000119
H            0.69562220989280       -0.59725875233559        0.02768356808286
H            0.80495748668487        0.79074500626775       -0.89787838599734
H            0.69188838969005        0.90788804467011        0.76347617511702
H            2.95010133998371       -0.32112577797937       -0.69846021753292
H            2.84275352289959       -0.11344866187357        1.04575111647376
H            2.79700762182162        2.36784748644892        0.75988029392832
H            2.88366477442051        2.16309922235788       -1.00048776914740
H            4.92266071610560        1.16415734535025       -2.03271640479333
H            7.37160267596941        0.98639162598246       -1.89980746610724
H            7.21886057522546        1.94793057805878        2.25554494060359
H            4.76924244972424        2.12121845760894        2.12772698563571

          :  Hamiltonian                  GFN2-xTB          :
         :: total energy             -34.799763026499 Eh    ::
         :: gradient norm              0.000306449642 Eh/a0 ::
         :: HOMO-LUMO gap              4.408422736678 eV    ::
         :: SCC energy               -35.239329772340 Eh    ::
         :: -> dispersion             -0.017706202703 Eh    ::
         :: -> Gsolv                  -0.080343416912 Eh    ::
         :: repulsion energy           0.439610503607 Eh    ::

    * Orbital Energies and Occupations

         #    Occupation            Energy/Eh            Energy/eV
      -------------------------------------------------------------
         1        2.0000           -1.0619197             -28.8963
       ...           ...                  ...                  ...
        19        2.0000           -0.4832561             -13.1501
        20        2.0000           -0.4797932             -13.0558
        21        2.0000           -0.4705791             -12.8051
        22        2.0000           -0.4443449             -12.0912
        23        2.0000           -0.4409534             -11.9990
        24        2.0000           -0.4381861             -11.9237
        25        2.0000           -0.4302046             -11.7065
        26        2.0000           -0.4175560             -11.3623
        27        2.0000           -0.4112355             -11.1903
        28        2.0000           -0.4031312             -10.9698
        29        2.0000           -0.3994036             -10.8683
        30        2.0000           -0.3993813             -10.8677
        31        2.0000           -0.3926024             -10.6833 (HOMO)
        32                         -0.2305958              -6.2748 (LUMO)
        33                         -0.2297850              -6.2528
        34                         -0.1376598              -3.7459
        35                         -0.1046245              -2.8470
        36                         -0.0233237              -0.6347
        37                          0.0137469               0.3741
        38                          0.0178403               0.4855
        39                          0.0179168               0.4875
        40                          0.0301320               0.8199
        41                          0.0801874               2.1820
        42                          0.0935946               2.5468
       ...                                ...                  ...
        65                          0.6474035              17.6167
      -------------------------------------------------------------
                  HL-Gap            0.1620066 Eh            4.4084 eV

     #   Z          covCN         q      C6AA      α(0)
     1   7 N        3.483    -0.166    24.582     7.364
     2   6 C        3.735    -0.021    21.035     6.546
     3   6 C        3.809    -0.094    22.283     6.720
     4   6 C        2.970     0.019    27.576     8.614
     5   6 C        2.928    -0.042    29.034     8.837
     6   6 C        2.948    -0.043    29.074     8.844
     7   6 C        2.891     0.098    25.828     8.332
     8  17 Cl       0.956    -0.245   106.919    15.819
     9   6 C        2.948    -0.043    29.077     8.844
    10   6 C        2.928    -0.042    29.033     8.836
    11  17 Cl       0.058    -0.946   124.822    17.004
    12   1 H        0.915     0.295     0.724     1.331
    13   1 H        0.859     0.299     0.715     1.325
    14   1 H        0.859     0.300     0.712     1.322
    15   1 H        0.925     0.097     1.809     2.104
    16   1 H        0.925     0.098     1.799     2.097
    17   1 H        0.925     0.085     1.929     2.172
    18   1 H        0.925     0.086     1.919     2.166
    19   1 H        0.926     0.071     2.070     2.250
    20   1 H        0.926     0.059     2.209     2.324
    21   1 H        0.926     0.060     2.199     2.319
    22   1 H        0.926     0.072     2.060     2.245

Wiberg/Mayer (AO) data.
largest (>0.10) Wiberg bond orders for each atom

     #   Z sym  total        # sym  WBO       # sym  WBO       # sym  WBO
 ---------------------------------------------------------------------------
     1   7 N    3.645 --     2 C    0.971    14 H    0.895    13 H    0.895
                            12 H    0.829
     2   6 C    3.931 --     3 C    0.992     1 N    0.971    16 H    0.968
                            15 H    0.968
     3   6 C    3.987 --     4 C    1.010     2 C    0.992    17 H    0.968
                            18 H    0.964
     4   6 C    3.989 --    10 C    1.413     5 C    1.408     3 C    1.010
     5   6 C    3.987 --     6 C    1.444     4 C    1.408    19 H    0.965
                             9 C    0.110
     6   6 C    3.987 --     5 C    1.444     7 C    1.408    20 H    0.967
                            10 C    0.109
     7   6 C    3.890 --     9 C    1.411     6 C    1.408     8 Cl   0.929
     8  17 Cl   1.049 --     7 C    0.929
     9   6 C    3.987 --    10 C    1.439     7 C    1.411    21 H    0.967
                             5 C    0.110
    10   6 C    3.987 --     9 C    1.439     4 C    1.413    22 H    0.964
                             6 C    0.109
    11  17 Cl   0.105
    12   1 H    0.913 --     1 N    0.829
    13   1 H    0.910 --     1 N    0.895
    14   1 H    0.910 --     1 N    0.895
    15   1 H    0.991 --     2 C    0.968
    16   1 H    0.990 --     2 C    0.968
    17   1 H    0.992 --     3 C    0.968
    18   1 H    0.992 --     3 C    0.964
    19   1 H    0.995 --     5 C    0.965
    20   1 H    0.996 --     6 C    0.967
    21   1 H    0.996 --     9 C    0.967
    22   1 H    0.995 --    10 C    0.964
 ---------------------------------------------------------------------------

molecular dipole:
                 x           y           z       tot (Debye)
 q only:        0.579       5.215      -0.195
   full:        0.718       4.488      -0.163      11.559

           -------------------------------------------------
          | TOTAL ENERGY              -34.799763026499 Eh   |
          | GRADIENT NORM               0.000306449642 Eh/α |
          | HOMO-LUMO GAP               4.408422736678 eV   |
           -------------------------------------------------

 * finished run on 2023/01/24 at 15:45:28.291
