   * xtb version 6.5.1 (fef0646) compiled by 'conda@b96dff2e9fd6' on 2023-01-04
          program call               : xtb init.xyz --opt -c 1 -u 0 -P 16 --alpb water

   ID    Z sym.   atoms
    1    7 N      1
    2    6 C      2-13
    3    1 H      14-27

      * Solvation model:               ALPB
        Solvent                        water
        Solvent mass                       1.8000E+01 g/mol
          :  Hamiltonian                  GFN2-xTB          :
 * total energy  :   -35.4222815 Eh     change       -0.2623679E-09 Eh
 * total energy  :   -35.4262599 Eh     change       -0.3978386E-02 Eh
 * total energy  :   -35.4269729 Eh     change       -0.7130094E-03 Eh
 * total energy  :   -35.4270611 Eh     change       -0.8818477E-04 Eh
 * total energy  :   -35.4271125 Eh     change       -0.5134790E-04 Eh
 * total energy  :   -35.4271285 Eh     change       -0.1606090E-04 Eh
 * total energy  :   -35.4271452 Eh     change       -0.1669009E-04 Eh
 * total energy  :   -35.4271559 Eh     change       -0.1071067E-04 Eh
 * total energy  :   -35.4271663 Eh     change       -0.1033654E-04 Eh
 * total energy  :   -35.4271697 Eh     change       -0.3393779E-05 Eh
   *** GEOMETRY OPTIMIZATION CONVERGED AFTER 10 ITERATIONS ***

 final structure:
================
27
 xtb: 6.5.1 (fef0646)
N            3.38892309395396       -0.76052812884786        0.76300975305205
C            2.38567298402123       -0.03318645695547       -0.07316442985473
C            1.04591987348617       -0.75335802129930        0.02090106949615
C            2.87575123919901        0.05385708831795       -1.49939364067361
C            3.16343512200562       -1.12364537128955       -2.22063363579954
C            3.59890980287953       -1.05979766401915       -3.51290083787149
C            3.02989773620505        1.27163164941896       -2.10832652653959
C            3.47443071321654        1.37110738787545       -3.44246868389621
C            3.77042813301381        0.18220208954502       -4.15957549394165
C            4.22093421392026        0.28050854695089       -5.49181401122523
C            4.37150189075936        1.50199303136387       -6.08706356451275
C            4.07801548633760        2.67825898292499       -5.37819527891605
C            3.63930187736543        2.61566687483521       -4.08514413781829
H            4.29558711821383       -0.27917634659224        0.74606596146376
H            3.52105483383636       -1.71195247449936        0.39897659210418
H            3.06246167770249       -0.82767734792004        1.73459819262722
H            2.28204282536250        0.97845016629639        0.32629039264214
H            1.11693940748579       -1.77105903462623       -0.35087776774422
H            0.30870828051766       -0.23352090278752       -0.58337659249045
H            0.68477102222417       -0.77085946512543        1.04513272526011
H            3.02556836599597       -2.09282092610951       -1.76698717972149
H            3.81802493274687       -1.96194212955068       -4.06460900057469
H            2.80729948792760        2.18584969738025       -1.57803690520433
H            4.44526210475399       -0.62559898981059       -6.03618468017406
H            4.71803363189012        1.57206738385072       -7.10776164467805
H            4.20385544166022        3.63351630760127       -5.86632651177571
H            3.41310870331879        3.52136405307195       -3.54153416323355

          :  Hamiltonian                  GFN2-xTB          :
         :: total energy             -35.427169667428 Eh    ::
         :: gradient norm              0.000561094543 Eh/a0 ::
         :: HOMO-LUMO gap              3.230904894026 eV    ::
         :: SCC energy               -36.071088433863 Eh    ::
         :: -> dispersion             -0.023997195594 Eh    ::
         :: -> Gsolv                  -0.113749750083 Eh    ::
         :: repulsion energy           0.643886800204 Eh    ::

    * Orbital Energies and Occupations

         #    Occupation            Energy/Eh            Energy/eV
      -------------------------------------------------------------
         1        2.0000           -0.6968012             -18.9609
       ...           ...                  ...                  ...
        21        2.0000           -0.4894127             -13.3176
        22        2.0000           -0.4766731             -12.9709
        23        2.0000           -0.4736602             -12.8889
        24        2.0000           -0.4718221             -12.8389
        25        2.0000           -0.4637779             -12.6200
        26        2.0000           -0.4585775             -12.4785
        27        2.0000           -0.4529455             -12.3253
        28        2.0000           -0.4411173             -12.0034
        29        2.0000           -0.4295140             -11.6877
        30        2.0000           -0.4216045             -11.4724
        31        2.0000           -0.4167094             -11.3392
        32        2.0000           -0.4036321             -10.9834
        33        2.0000           -0.3828784             -10.4187 (HOMO)
        34                         -0.2641448              -7.1877 (LUMO)
        35                         -0.2350357              -6.3956
        36                         -0.1928163              -5.2468
        37                         -0.1537485              -4.1837
        38                         -0.0652344              -1.7751
        39                         -0.0421015              -1.1456
        40                          0.0484466               1.3183
        41                          0.0634684               1.7271
        42                          0.0952204               2.5911
        43                          0.1015364               2.7629
        44                          0.1090649               2.9678
       ...                                ...                  ...
        66                          0.6929160              18.8552
      -------------------------------------------------------------
                  HL-Gap            0.1187336 Eh            3.2309 eV

     #   Z          covCN         q      C6AA      α(0)
     1   7 N        3.486    -0.168    24.630     7.371
     2   6 C        3.786     0.027    20.131     6.391
     3   6 C        3.756    -0.149    23.439     6.903
     4   6 C        2.969     0.002    27.978     8.676
     5   6 C        2.918    -0.047    29.168     8.856
     6   6 C        2.917    -0.038    28.953     8.824
     7   6 C        2.923    -0.048    29.193     8.860
     8   6 C        2.986     0.012    27.734     8.639
     9   6 C        2.987     0.011    27.773     8.645
    10   6 C        2.918    -0.040    28.990     8.829
    11   6 C        2.916    -0.033    28.824     8.804
    12   6 C        2.916    -0.033    28.832     8.805
    13   6 C        2.918    -0.041    29.020     8.834
    14   1 H        0.859     0.310     0.686     1.297
    15   1 H        0.859     0.302     0.707     1.317
    16   1 H        0.859     0.316     0.669     1.281
    17   1 H        0.924     0.105     1.741     2.064
    18   1 H        0.925     0.077     2.013     2.219
    19   1 H        0.925     0.070     2.085     2.258
    20   1 H        0.925     0.079     1.986     2.204
    21   1 H        0.926     0.066     2.129     2.282
    22   1 H        0.926     0.039     2.460     2.453
    23   1 H        0.926     0.054     2.265     2.354
    24   1 H        0.926     0.033     2.539     2.492
    25   1 H        0.926     0.026     2.647     2.544
    26   1 H        0.926     0.028     2.617     2.530
    27   1 H        0.926     0.041     2.430     2.438

Wiberg/Mayer (AO) data.
largest (>0.10) Wiberg bond orders for each atom

     #   Z sym  total        # sym  WBO       # sym  WBO       # sym  WBO
 ---------------------------------------------------------------------------
     1   7 N    3.649 --     2 C    0.941    14 H    0.890    15 H    0.888
                            16 H    0.885
     2   6 C    3.936 --     3 C    1.003     4 C    0.995    17 H    0.956
                             1 N    0.941
     3   6 C    3.979 --     2 C    1.003    18 H    0.978    19 H    0.978
                            20 H    0.978
     4   6 C    3.986 --     7 C    1.529     5 C    1.293     2 C    0.995
     5   6 C    3.988 --     6 C    1.563     4 C    1.293    21 H    0.961
     6   6 C    3.991 --     5 C    1.563     9 C    1.276    22 H    0.968
                             7 C    0.115
     7   6 C    3.989 --     4 C    1.529     8 C    1.280    23 H    0.964
                             6 C    0.115
     8   6 C    3.990 --     7 C    1.280    13 C    1.279     9 C    1.252
     9   6 C    3.990 --    10 C    1.281     6 C    1.276     8 C    1.252
    10   6 C    3.991 --    11 C    1.556     9 C    1.281    24 H    0.968
                            13 C    0.119
    11   6 C    3.990 --    10 C    1.556    12 C    1.321    25 H    0.971
    12   6 C    3.992 --    13 C    1.557    11 C    1.321    26 H    0.971
    13   6 C    3.989 --    12 C    1.557     8 C    1.279    27 H    0.968
                            10 C    0.119
    14   1 H    0.904 --     1 N    0.890
    15   1 H    0.909 --     1 N    0.888
    16   1 H    0.900 --     1 N    0.885
    17   1 H    0.989 --     2 C    0.956
    18   1 H    0.994 --     3 C    0.978
    19   1 H    0.995 --     3 C    0.978
    20   1 H    0.993 --     3 C    0.978
    21   1 H    0.995 --     5 C    0.961
    22   1 H    0.998 --     6 C    0.968
    23   1 H    0.997 --     7 C    0.964
    24   1 H    0.998 --    10 C    0.968
    25   1 H    0.999 --    11 C    0.971
    26   1 H    0.999 --    12 C    0.971
    27   1 H    0.998 --    13 C    0.968
 ---------------------------------------------------------------------------

molecular dipole:
                 x           y           z       tot (Debye)
 q only:        6.024      -1.459       1.468
   full:        6.165      -1.397       1.214      16.360

           -------------------------------------------------
          | TOTAL ENERGY              -35.427169667428 Eh   |
          | GRADIENT NORM               0.000561094543 Eh/α |
          | HOMO-LUMO GAP               3.230904894026 eV   |
           -------------------------------------------------

 * finished run on 2023/01/24 at 14:58:18.601
