   * xtb version 6.5.1 (fef0646) compiled by 'conda@b96dff2e9fd6' on 2023-01-04
          program call               : xtb init.xyz --opt -c 0 -u 0 -P 16 --alpb water

   ID    Z sym.   atoms
    1    7 N      1
    2    6 C      2-9
    3   17 Cl     10
    4    1 H      11-22

      * Solvation model:               ALPB
        Solvent                        water
        Solvent mass                       1.8000E+01 g/mol
          :  Hamiltonian                  GFN2-xTB          :
 * total energy  :   -30.7297995 Eh     change       -0.3110223E-09 Eh
 * total energy  :   -30.7333060 Eh     change       -0.3506545E-02 Eh
 * total energy  :   -30.7339151 Eh     change       -0.6091261E-03 Eh
 * total energy  :   -30.7342111 Eh     change       -0.2959105E-03 Eh
 * total energy  :   -30.7345204 Eh     change       -0.3093767E-03 Eh
 * total energy  :   -30.7348342 Eh     change       -0.3138117E-03 Eh
 * total energy  :   -30.7351683 Eh     change       -0.3340067E-03 Eh
 * total energy  :   -30.7355401 Eh     change       -0.3718120E-03 Eh
 * total energy  :   -30.7359008 Eh     change       -0.3607187E-03 Eh
 * total energy  :   -30.7361927 Eh     change       -0.2918927E-03 Eh
 * total energy  :   -30.7454200 Eh     change       -0.1981168E-04 Eh
 * total energy  :   -30.7454640 Eh     change       -0.4398618E-04 Eh
 * total energy  :   -30.7454877 Eh     change       -0.2371460E-04 Eh
 * total energy  :   -30.7455101 Eh     change       -0.2244562E-04 Eh
 * total energy  :   -30.7455336 Eh     change       -0.2351339E-04 Eh
 * total energy  :   -30.7455527 Eh     change       -0.1903750E-04 Eh
 * total energy  :   -30.7455662 Eh     change       -0.1355119E-04 Eh
 * total energy  :   -30.7455753 Eh     change       -0.9057322E-05 Eh
 * total energy  :   -30.7455802 Eh     change       -0.4915261E-05 Eh
   *** GEOMETRY OPTIMIZATION CONVERGED AFTER 40 ITERATIONS ***

 final structure:
================
22
 xtb: 6.5.1 (fef0646)
N            2.69122087527558       -1.21962119695508       -0.00119572816495
C            1.88426056621161        0.02140737366969       -0.13964170912527
C            0.49408044081920       -0.33112351132360       -0.65728729944625
C            2.60435575331376        0.98598276377580       -1.05073288816831
C            3.02309368095577        2.21888231975590       -0.57155506569224
C            3.68782425270278        3.10663823671724       -1.39917908432336
C            3.94183225378550        2.76956167951254       -2.71760175079378
C            3.52637164526797        1.54184800769336       -3.20418568405664
C            2.86226516528213        0.65564252809787       -2.37575583046488
Cl           5.36481297333035       -0.56402146001636        1.28879834953332
H            3.62516838216668       -1.00187868308959        0.43666510326161
H            2.87160346486367       -1.63856549152741       -0.91719119044729
H            2.21732375200843       -1.89977645687058        0.59854390788931
H            1.80960653524308        0.47211150230463        0.85285577999483
H            0.55065645168533       -0.82184863383524       -1.62398927224789
H           -0.09210062354478        0.57501734758854       -0.77432164916349
H           -0.02145027442012       -0.98094573424626        0.04376898639705
H            2.83905377247871        2.48487129266754        0.45892583467437
H            4.01455565832838        4.06099909883009       -1.01257605316343
H            4.46509123580890        3.46073323162109       -3.36156963512912
H            3.72548802964889        1.27493661401585       -4.23131604226170
H            2.54375600894189       -0.29293082832960       -2.78031907918465

          :  Hamiltonian                  GFN2-xTB          :
         :: total energy             -30.745580189765 Eh    ::
         :: gradient norm              0.000561647233 Eh/a0 ::
         :: HOMO-LUMO gap              4.736976403743 eV    ::
         :: SCC energy               -31.198023112607 Eh    ::
         :: -> dispersion             -0.017790296437 Eh    ::
         :: -> Gsolv                  -0.070070631226 Eh    ::
         :: repulsion energy           0.452267099439 Eh    ::

    * Orbital Energies and Occupations

         #    Occupation            Energy/Eh            Energy/eV
      -------------------------------------------------------------
         1        2.0000           -1.0057423             -27.3676
       ...           ...                  ...                  ...
        16        2.0000           -0.4834644             -13.1557
        17        2.0000           -0.4755187             -12.9395
        18        2.0000           -0.4744722             -12.9110
        19        2.0000           -0.4663450             -12.6899
        20        2.0000           -0.4614839             -12.5576
        21        2.0000           -0.4458348             -12.1318
        22        2.0000           -0.4229869             -11.5101
        23        2.0000           -0.4187329             -11.3943
        24        2.0000           -0.4038171             -10.9884
        25        2.0000           -0.4016411             -10.9292
        26        2.0000           -0.3997513             -10.8778
        27        2.0000           -0.3996837             -10.8759
        28        2.0000           -0.3985229             -10.8444 (HOMO)
        29                         -0.2244423              -6.1074 (LUMO)
        30                         -0.2200542              -5.9880
        31                         -0.0957364              -2.6051
        32                         -0.0186083              -0.5064
        33                          0.0737332               2.0064
        34                          0.0769252               2.0932
        35                          0.0927799               2.5247
        36                          0.1155913               3.1454
        37                          0.1174890               3.1970
        38                          0.1178170               3.2060
        39                          0.1200031               3.2654
       ...                                ...                  ...
        57                          0.6674329              18.1618
      -------------------------------------------------------------
                  HL-Gap            0.1740807 Eh            4.7370 eV

     #   Z          covCN         q      C6AA      α(0)
     1   7 N        3.486    -0.175    24.786     7.394
     2   6 C        3.787     0.034    20.015     6.372
     3   6 C        3.755    -0.145    23.359     6.891
     4   6 C        2.973     0.010    27.785     8.646
     5   6 C        2.925    -0.034    28.846     8.808
     6   6 C        2.919    -0.032    28.789     8.799
     7   6 C        2.920    -0.034    28.853     8.809
     8   6 C        2.919    -0.035    28.869     8.811
     9   6 C        2.924    -0.041    29.013     8.833
    10  17 Cl       0.062    -0.944   124.775    17.000
    11   1 H        0.918     0.293     0.729     1.335
    12   1 H        0.859     0.290     0.745     1.352
    13   1 H        0.859     0.302     0.707     1.318
    14   1 H        0.924     0.090     1.876     2.142
    15   1 H        0.925     0.077     2.015     2.220
    16   1 H        0.925     0.072     2.067     2.248
    17   1 H        0.925     0.076     2.017     2.221
    18   1 H        0.926     0.037     2.489     2.467
    19   1 H        0.926     0.028     2.617     2.530
    20   1 H        0.926     0.030     2.580     2.512
    21   1 H        0.926     0.041     2.439     2.442
    22   1 H        0.926     0.060     2.194     2.316

Wiberg/Mayer (AO) data.
largest (>0.10) Wiberg bond orders for each atom

     #   Z sym  total        # sym  WBO       # sym  WBO       # sym  WBO
 ---------------------------------------------------------------------------
     1   7 N    3.643 --     2 C    0.944    12 H    0.896    13 H    0.893
                            11 H    0.829
     2   6 C    3.937 --     3 C    1.002     4 C    0.994    14 H    0.959
                             1 N    0.944
     3   6 C    3.982 --     2 C    1.002    17 H    0.980    16 H    0.979
                            15 H    0.979
     4   6 C    3.988 --     5 C    1.418     9 C    1.413     2 C    0.994
                             7 C    0.110
     5   6 C    3.992 --     6 C    1.442     4 C    1.418    18 H    0.968
                             8 C    0.112
     6   6 C    3.992 --     5 C    1.442     7 C    1.442    19 H    0.971
                             9 C    0.112
     7   6 C    3.992 --     6 C    1.442     8 C    1.437    20 H    0.971
                             4 C    0.110
     8   6 C    3.992 --     9 C    1.446     7 C    1.437    21 H    0.971
                             5 C    0.112
     9   6 C    3.990 --     8 C    1.446     4 C    1.413    22 H    0.963
                             6 C    0.112
    10  17 Cl   0.108
    11   1 H    0.914 --     1 N    0.829
    12   1 H    0.916 --     1 N    0.896
    13   1 H    0.908 --     1 N    0.893
    14   1 H    0.992 --     2 C    0.959
    15   1 H    0.994 --     3 C    0.979
    16   1 H    0.995 --     3 C    0.979
    17   1 H    0.993 --     3 C    0.980
    18   1 H    0.999 --     5 C    0.968
    19   1 H    0.999 --     6 C    0.971
    20   1 H    0.999 --     7 C    0.971
    21   1 H    0.998 --     8 C    0.971
    22   1 H    0.996 --     9 C    0.963
 ---------------------------------------------------------------------------

molecular dipole:
                 x           y           z       tot (Debye)
 q only:       -5.090      -1.125      -2.422
   full:       -4.300      -0.956      -2.113      12.419

           -------------------------------------------------
          | TOTAL ENERGY              -30.745580189765 Eh   |
          | GRADIENT NORM               0.000561647233 Eh/α |
          | HOMO-LUMO GAP               4.736976403743 eV   |
           -------------------------------------------------

 * finished run on 2023/01/24 at 16:55:43.690
