   * xtb version 6.5.1 (fef0646) compiled by 'conda@b96dff2e9fd6' on 2023-01-04
          program call               : xtb init.xyz --opt -c 1 -u 0 -P 16 --alpb water

   ID    Z sym.   atoms
    1    8 O      1
    2    6 C      2-4
    3    7 N      5
    4    1 H      6-15

      * Solvation model:               ALPB
        Solvent                        water
        Solvent mass                       1.8000E+01 g/mol
          :  Hamiltonian                  GFN2-xTB          :
 * total energy  :   -18.1829036 Eh     change       -0.1201528E-10 Eh
 * total energy  :   -18.1852222 Eh     change       -0.2318616E-02 Eh
 * total energy  :   -18.1857814 Eh     change       -0.5592261E-03 Eh
 * total energy  :   -18.1859618 Eh     change       -0.1804036E-03 Eh
 * total energy  :   -18.1860539 Eh     change       -0.9206987E-04 Eh
 * total energy  :   -18.1860802 Eh     change       -0.2626197E-04 Eh
 * total energy  :   -18.1860911 Eh     change       -0.1091001E-04 Eh
 * total energy  :   -18.1860981 Eh     change       -0.7030467E-05 Eh
 * total energy  :   -18.1861029 Eh     change       -0.4756961E-05 Eh
   *** GEOMETRY OPTIMIZATION CONVERGED AFTER 9 ITERATIONS ***

 final structure:
================
15
 xtb: 6.5.1 (fef0646)
O            2.81258098346870        1.30862974620603       -0.61063644290994
C            2.36986758077980        0.04602079369953       -0.12785575684343
C            2.90930048975324       -0.16418446591658        1.28757316796615
C            4.43311162862678       -0.20473985310504        1.31584000620463
N            4.97012471627587        1.13953225433342        0.99695239107824
H            2.39058993271581        1.51127922891613       -1.45231749550280
H            2.72889766124162       -0.75223570837201       -0.78978946426941
H            1.27576677949548        0.00838881512091       -0.10835458066660
H            2.51144635411183       -1.10347623895501        1.66618803332981
H            2.54269040837803        0.63924971829028        1.92648336562565
H            4.79158269347911       -0.91632513528197        0.57163491489819
H            4.78314045242241       -0.52052935209869        2.29802100807770
H            4.43463019818739        1.49388888344274        0.17827745086973
H            5.97073806947233        1.11100127340271        0.78376677725573
H            4.80781205159158        1.78638004031754        1.77488662488638

          :  Hamiltonian                  GFN2-xTB          :
         :: total energy             -18.186102852391 Eh    ::
         :: gradient norm              0.000778970773 Eh/a0 ::
         :: HOMO-LUMO gap             10.355845742926 eV    ::
         :: SCC energy               -18.393527407157 Eh    ::
         :: -> dispersion             -0.006448768981 Eh    ::
         :: -> Gsolv                  -0.111895858018 Eh    ::
         :: repulsion energy           0.207412125284 Eh    ::

    * Orbital Energies and Occupations

         #    Occupation            Energy/Eh            Energy/eV
      -------------------------------------------------------------
         1        2.0000           -0.6995770             -19.0365
       ...           ...                  ...                  ...
         4        2.0000           -0.6257982             -17.0288
         5        2.0000           -0.6001705             -16.3315
         6        2.0000           -0.5877035             -15.9922
         7        2.0000           -0.5770276             -15.7017
         8        2.0000           -0.5599646             -15.2374
         9        2.0000           -0.5497021             -14.9582
        10        2.0000           -0.5236622             -14.2496
        11        2.0000           -0.5176023             -14.0847
        12        2.0000           -0.4961309             -13.5004
        13        2.0000           -0.4704049             -12.8004
        14        2.0000           -0.4630233             -12.5995
        15        2.0000           -0.4439173             -12.0796
        16        2.0000           -0.4182391             -11.3809 (HOMO)
        17                         -0.0376687              -1.0250 (LUMO)
        18                          0.0241038               0.6559
        19                          0.0726661               1.9773
        20                          0.0779037               2.1199
        21                          0.1109505               3.0191
        22                          0.1195081               3.2520
        23                          0.1410480               3.8381
        24                          0.1491800               4.0594
        25                          0.1695536               4.6138
        26                          0.2153785               5.8607
        27                          0.2302707               6.2660
       ...                                ...                  ...
        30                          0.2818255               7.6689
      -------------------------------------------------------------
                  HL-Gap            0.3805703 Eh           10.3558 eV

     #   Z          covCN         q      C6AA      α(0)
     1   8 O        1.654    -0.494    22.767     6.441
     2   6 C        3.673     0.066    19.696     6.360
     3   6 C        3.802    -0.091    22.235     6.713
     4   6 C        3.732    -0.034    21.268     6.583
     5   7 N        3.485    -0.170    24.657     7.375
     6   1 H        0.805     0.357     0.573     1.188
     7   1 H        0.924     0.038     2.470     2.458
     8   1 H        0.924     0.030     2.593     2.518
     9   1 H        0.925     0.074     2.046     2.237
    10   1 H        0.925     0.084     1.934     2.175
    11   1 H        0.924     0.107     1.725     2.054
    12   1 H        0.925     0.106     1.731     2.058
    13   1 H        0.858     0.319     0.660     1.273
    14   1 H        0.859     0.306     0.695     1.305
    15   1 H        0.859     0.301     0.709     1.319

Wiberg/Mayer (AO) data.
largest (>0.10) Wiberg bond orders for each atom

     #   Z sym  total        # sym  WBO       # sym  WBO       # sym  WBO
 ---------------------------------------------------------------------------
     1   8 O    1.948 --     2 C    0.986     6 H    0.856
     2   6 C    3.952 --     3 C    1.006     1 O    0.986     8 H    0.974
                             7 H    0.970
     3   6 C    3.989 --     4 C    1.014     2 C    1.006    10 H    0.968
                             9 H    0.968
     4   6 C    3.935 --     3 C    1.014     5 N    0.971    12 H    0.968
                            11 H    0.966
     5   7 N    3.645 --     4 C    0.971    15 H    0.895    14 H    0.893
                            13 H    0.843
     6   1 H    0.873 --     1 O    0.856
     7   1 H    0.999 --     2 C    0.970
     8   1 H    0.999 --     2 C    0.974
     9   1 H    0.995 --     3 C    0.968
    10   1 H    0.993 --     3 C    0.968
    11   1 H    0.989 --     4 C    0.966
    12   1 H    0.989 --     4 C    0.968
    13   1 H    0.898 --     5 N    0.843
    14   1 H    0.906 --     5 N    0.893
    15   1 H    0.909 --     5 N    0.895
 ---------------------------------------------------------------------------

molecular dipole:
                 x           y           z       tot (Debye)
 q only:        8.723       1.645       1.574
   full:        8.573       1.650       1.379      22.467

           -------------------------------------------------
          | TOTAL ENERGY              -18.186102852391 Eh   |
          | GRADIENT NORM               0.000778970773 Eh/α |
          | HOMO-LUMO GAP              10.355845742926 eV   |
           -------------------------------------------------

 * finished run on 2023/01/24 at 15:07:15.489
