   * xtb version 6.5.1 (fef0646) compiled by 'conda@b96dff2e9fd6' on 2023-01-04
          program call               : xtb init.xyz --opt -c 0 -u 0 -P 16 --input xtb.inp

   ID    Z sym.   atoms
    1    7 N      1
    2    6 C      2-19
    3   16 S      20-23
    4   17 Cl     24
    5    1 H      25-40

          :  Hamiltonian                  GFN2-xTB          :
 * total energy  :   -67.1041179 Eh     change       -0.8912622E-09 Eh
 * total energy  :   -67.1159430 Eh     change       -0.1182513E-01 Eh
 * total energy  :   -67.1218296 Eh     change       -0.5886600E-02 Eh
 * total energy  :   -67.1244100 Eh     change       -0.2580395E-02 Eh
 * total energy  :   -67.1271942 Eh     change       -0.2784173E-02 Eh
 * total energy  :   -67.1294995 Eh     change       -0.2305312E-02 Eh
 * total energy  :   -67.1310823 Eh     change       -0.1582818E-02 Eh
 * total energy  :   -67.1317131 Eh     change       -0.6308116E-03 Eh
 * total energy  :   -67.1319490 Eh     change       -0.2358352E-03 Eh
 * total energy  :   -67.1321063 Eh     change       -0.1573151E-03 Eh
 * total energy  :   -67.1365341 Eh     change       -0.4900674E-04 Eh
 * total energy  :   -67.1365628 Eh     change       -0.2877352E-04 Eh
 * total energy  :   -67.1365811 Eh     change       -0.1822958E-04 Eh
 * total energy  :   -67.1366000 Eh     change       -0.1897826E-04 Eh
 * total energy  :   -67.1366148 Eh     change       -0.1476543E-04 Eh
 * total energy  :   -67.1366162 Eh     change       -0.1370667E-05 Eh
 * total energy  :   -67.1366301 Eh     change       -0.1394413E-04 Eh
 * total energy  :   -67.1366364 Eh     change       -0.6246355E-05 Eh
 * total energy  :   -67.1366393 Eh     change       -0.2949162E-05 Eh
   *** GEOMETRY OPTIMIZATION CONVERGED AFTER 70 ITERATIONS ***

 final structure:
================
40
 xtb: 6.5.1 (fef0646)
N            3.14620782922459       -0.20955123482361        0.43950714210600
C            2.75132973584350        0.97761430405241        1.18265831691691
C            3.86719351268231        1.56944915805481        2.06904345470309
C            5.01790627867121        2.05355985866711        1.25718027514780
C            5.22426229427872        3.29610904243554        0.73744217323985
C            6.39910642436719        3.39685140120833       -0.02828081007303
C            7.10102497722473        2.22169882510763       -0.10406032362430
C            8.32360773254929        1.95498319564245       -0.78294389057999
C            9.03022118618448        0.77688001547681       -0.83717091248628
C           10.20033493349064        0.86500980865468       -1.59555324570967
C           10.40915718335478        2.11239791218501       -2.13642785666004
C           11.48493264879696        2.54938195044203       -2.95621414497028
C           11.68841022496111        3.79331289583067       -3.50699520366148
C           12.85566067596584        3.87921264799641       -4.27007653297907
C           13.56705544339878        2.70358408688024       -4.31648538097292
C           14.78996972760235        2.43726404102198       -4.99711910069219
C           15.50704077638347        1.26821815331050       -5.03525002006115
C           16.67558200865066        1.36252796386478       -5.81213800528083
C           16.84412234535860        2.59472091804764       -6.36036141408811
S           15.57585658002146        3.67465168665597       -5.93916559391572
S           12.77279458888898        1.45937280552459       -3.39307017126707
S            9.12576513791054        3.20452198574005       -1.69408074109765
S            6.29147576626543        0.96519447075912        0.79092008664036
Cl           0.84612611964219       -1.21711780904761       -1.09603992285193
H            1.91608423513949       -0.75413253340886       -0.39305341667663
H            3.45313084103586       -0.94445915048782        1.06884672445866
H            3.90755792829008       -0.00027209167620       -0.19869014876817
H            1.90068627146418        0.70857690753447        1.81221481764444
H            2.42290399139562        1.72825073797621        0.46090726231175
H            4.20470451458182        0.80450266397474        2.77279251196668
H            3.45315731416229        2.40379751817740        2.63761474325011
H            4.55437556103496        4.12035492191725        0.90687787151715
H            6.73027181512072        4.29923977019514       -0.51049034637777
H            8.70227235055388       -0.11849602269587       -0.33856135522386
H           10.88168204085422        0.04740295406203       -1.75135343400579
H           11.00458622897808        4.61002103869727       -3.35578014992610
H           13.17995320587169        4.77024932108003       -4.77802720134965
H           15.19447257224745        0.37842711251365       -4.51801912598176
H           17.36243337640735        0.54809539260352       -5.95729944886928
H           17.63859362122888        2.94199337596752       -6.99022748189052

          :  Hamiltonian                  GFN2-xTB          :
         :: total energy             -67.136639310738 Eh    ::
         :: gradient norm              0.000549203482 Eh/a0 ::
         :: HOMO-LUMO gap              1.774413311199 eV    ::
         :: SCC energy               -68.064016652283 Eh    ::
         :: -> dispersion             -0.050753255074 Eh    ::
         :: repulsion energy           0.928093564761 Eh    ::

    * Orbital Energies and Occupations

         #    Occupation            Energy/Eh            Energy/eV
      -------------------------------------------------------------
         1        2.0000           -1.0187377             -27.7213
       ...           ...                  ...                  ...
        50        2.0000           -0.4534144             -12.3380
        51        2.0000           -0.4495607             -12.2332
        52        2.0000           -0.4444933             -12.0953
        53        2.0000           -0.4201411             -11.4326
        54        2.0000           -0.4101814             -11.1616
        55        2.0000           -0.4072914             -11.0830
        56        2.0000           -0.4062857             -11.0556
        57        2.0000           -0.4039476             -10.9920
        58        2.0000           -0.4031185             -10.9694
        59        2.0000           -0.3957403             -10.7686
        60        2.0000           -0.3956835             -10.7671
        61        2.0000           -0.3867417             -10.5238
        62        2.0000           -0.3612832              -9.8310 (HOMO)
        63                         -0.2960747              -8.0566 (LUMO)
        64                         -0.2685042              -7.3064
        65                         -0.2391366              -6.5072
        66                         -0.2251613              -6.1270
        67                         -0.2204390              -5.9984
        68                         -0.2129507              -5.7947
        69                         -0.2116302              -5.7588
        70                         -0.2029552              -5.5227
        71                         -0.1886367              -5.1331
        72                         -0.1694023              -4.6097
        73                         -0.1576914              -4.2910
       ...                                ...                  ...
       137                          0.6996835              19.0394
      -------------------------------------------------------------
                  HL-Gap            0.0652085 Eh            1.7744 eV

     #   Z          covCN         q      C6AA      α(0)
     1   7 N        2.675    -0.307    27.896     7.844
     2   6 C        3.732     0.002    20.630     6.483
     3   6 C        3.823    -0.071    21.841     6.650
     4   6 C        2.986     0.019    27.584     8.615
     5   6 C        3.107    -0.053    29.169     8.849
     6   6 C        3.106    -0.051    29.119     8.842
     7   6 C        3.022     0.019    27.566     8.612
     8   6 C        3.024     0.020    27.535     8.607
     9   6 C        3.096    -0.048    29.058     8.835
    10   6 C        3.096    -0.048    29.077     8.837
    11   6 C        3.023     0.023    27.476     8.598
    12   6 C        3.023     0.021    27.515     8.604
    13   6 C        3.097    -0.047    29.048     8.833
    14   6 C        3.097    -0.048    29.065     8.835
    15   6 C        3.022     0.023    27.479     8.599
    16   6 C        3.024     0.020    27.545     8.609
    17   6 C        3.109    -0.050    29.084     8.835
    18   6 C        3.107    -0.041    28.872     8.804
    19   6 C        2.941    -0.019    28.479     8.752
    20  16 S        2.327    -0.028   142.201    20.070
    21  16 S        2.346    -0.042   142.802    20.113
    22  16 S        2.345    -0.044   142.867    20.117
    23  16 S        2.353    -0.061   143.593    20.168
    24  17 Cl       0.839    -0.472   114.661    16.381
    25   1 H        0.884     0.331     0.627     1.239
    26   1 H        0.860     0.169     1.278     1.771
    27   1 H        0.860     0.173     1.254     1.754
    28   1 H        0.924     0.058     2.218     2.329
    29   1 H        0.924     0.058     2.224     2.332
    30   1 H        0.924     0.050     2.317     2.381
    31   1 H        0.924     0.054     2.266     2.354
    32   1 H        0.926     0.039     2.460     2.453
    33   1 H        0.926     0.043     2.405     2.425
    34   1 H        0.926     0.043     2.412     2.429
    35   1 H        0.926     0.045     2.385     2.415
    36   1 H        0.926     0.045     2.388     2.417
    37   1 H        0.926     0.046     2.375     2.410
    38   1 H        0.926     0.043     2.405     2.425
    39   1 H        0.926     0.040     2.446     2.446
    40   1 H        0.926     0.047     2.363     2.404

Wiberg/Mayer (AO) data.
largest (>0.10) Wiberg bond orders for each atom

     #   Z sym  total        # sym  WBO       # sym  WBO       # sym  WBO
 ---------------------------------------------------------------------------
     1   7 N    3.236 --     2 C    1.019    26 H    0.957    27 H    0.951
                            25 H    0.189
     2   6 C    3.973 --     1 N    1.019    29 H    0.974     3 C    0.972
                            28 H    0.972
     3   6 C    3.995 --     4 C    1.029     2 C    0.972    30 H    0.970
                            31 H    0.965
     4   6 C    3.923 --     5 C    1.573    23 S    1.149     3 C    1.029
     5   6 C    3.985 --     4 C    1.573     6 C    1.301    32 H    0.964
     6   6 C    3.969 --     7 C    1.506     5 C    1.301    33 H    0.961
     7   6 C    3.950 --     6 C    1.506     8 C    1.166    23 S    1.111
     8   6 C    3.930 --     9 C    1.476     7 C    1.166    22 S    1.120
     9   6 C    3.983 --     8 C    1.476    10 C    1.344    34 H    0.961
    10   6 C    3.972 --    11 C    1.471     9 C    1.344    35 H    0.961
    11   6 C    3.938 --    10 C    1.471    12 C    1.176    22 S    1.119
    12   6 C    3.939 --    13 C    1.471    11 C    1.176    21 S    1.118
    13   6 C    3.972 --    12 C    1.471    14 C    1.344    36 H    0.961
    14   6 C    3.985 --    15 C    1.477    13 C    1.344    37 H    0.961
    15   6 C    3.931 --    14 C    1.477    16 C    1.164    21 S    1.123
    16   6 C    3.952 --    17 C    1.504    15 C    1.164    20 S    1.124
    17   6 C    3.970 --    16 C    1.504    18 C    1.302    38 H    0.962
    18   6 C    3.987 --    19 C    1.602    17 C    1.302    39 H    0.965
    19   6 C    3.925 --    18 C    1.602    20 S    1.194    40 H    0.970
    20  16 S    2.602 --    19 C    1.194    16 C    1.124
    21  16 S    2.565 --    15 C    1.123    12 C    1.118
    22  16 S    2.561 --     8 C    1.120    11 C    1.119
    23  16 S    2.567 --     4 C    1.149     7 C    1.111
    24  17 Cl   0.778 --    25 H    0.698
    25   1 H    0.891 --    24 Cl   0.698     1 N    0.189
    26   1 H    0.971 --     1 N    0.957
    27   1 H    0.970 --     1 N    0.951
    28   1 H    0.995 --     2 C    0.972
    29   1 H    0.997 --     2 C    0.974
    30   1 H    0.996 --     3 C    0.970
    31   1 H    0.996 --     3 C    0.965
    32   1 H    0.998 --     5 C    0.964
    33   1 H    0.998 --     6 C    0.961
    34   1 H    0.998 --     9 C    0.961
    35   1 H    0.998 --    10 C    0.961
    36   1 H    0.998 --    13 C    0.961
    37   1 H    0.997 --    14 C    0.961
    38   1 H    0.998 --    17 C    0.962
    39   1 H    0.998 --    18 C    0.965
    40   1 H    0.997 --    19 C    0.970
 ---------------------------------------------------------------------------

molecular dipole:
                 x           y           z       tot (Debye)
 q only:        1.413       0.721       1.051
   full:        1.562       0.697       0.941       4.961

           -------------------------------------------------
          | TOTAL ENERGY              -67.136639310738 Eh   |
          | GRADIENT NORM               0.000549203482 Eh/α |
          | HOMO-LUMO GAP               1.774413311199 eV   |
           -------------------------------------------------

 * finished run on 2023/01/23 at 19:31:28.236
