   * xtb version 6.5.1 (fef0646) compiled by 'conda@b96dff2e9fd6' on 2023-01-04
          program call               : xtb init.xyz --opt -c 0 -u 0 -P 16

   ID    Z sym.   atoms
    1    7 N      1, 16, 19
    2    6 C      2-15, 17, 18, 20-25
    3   16 S      26-29
    4   17 Cl     30
    5    1 H      31-48

          :  Hamiltonian                  GFN2-xTB          :
 * total energy  :   -82.4638921 Eh     change       -0.1126381E-08 Eh
 * total energy  :   -82.4804774 Eh     change       -0.1658532E-01 Eh
 * total energy  :   -82.4897236 Eh     change       -0.9246146E-02 Eh
 * total energy  :   -82.4946763 Eh     change       -0.4952754E-02 Eh
 * total energy  :   -82.4983612 Eh     change       -0.3684905E-02 Eh
 * total energy  :   -82.5013163 Eh     change       -0.2955059E-02 Eh
 * total energy  :   -82.5035561 Eh     change       -0.2239793E-02 Eh
 * total energy  :   -82.5053327 Eh     change       -0.1776659E-02 Eh
 * total energy  :   -82.5062420 Eh     change       -0.9092190E-03 Eh
 * total energy  :   -82.5077075 Eh     change       -0.1465544E-02 Eh
 * total energy  :   -82.5138417 Eh     change       -0.7944868E-06 Eh
 * total energy  :   -82.5138533 Eh     change       -0.1167528E-04 Eh
 * total energy  :   -82.5138006 Eh     change        0.5270339E-04 Eh
 * total energy  :   -82.5138578 Eh     change       -0.5718773E-04 Eh
 * total energy  :   -82.5138699 Eh     change       -0.1208359E-04 Eh
 * total energy  :   -82.5138754 Eh     change       -0.5457958E-05 Eh
 * total energy  :   -82.5138896 Eh     change       -0.1423369E-04 Eh
 * total energy  :   -82.5138966 Eh     change       -0.7004533E-05 Eh
 * total energy  :   -82.5139008 Eh     change       -0.4236146E-05 Eh
   *** GEOMETRY OPTIMIZATION CONVERGED AFTER 77 ITERATIONS ***

 final structure:
================
48
 xtb: 6.5.1 (fef0646)
N            3.40387060013013        1.71005889638189        1.03082551117103
C            2.76215208564292        1.97771124956034       -0.24652766617121
C            3.66940350057770        2.68627939316702       -1.27524994889007
C            4.80795668210788        1.82234108393502       -1.69078543845989
C            4.87805417157107        0.97120896445298       -2.75387457025115
C            6.08747486076219        0.26037449298800       -2.82524949067697
C            6.95440276187311        0.56113508417205       -1.80580150231031
C            8.25510493224004        0.03540327308338       -1.56750337441628
C            9.12379378838179        0.33303512438940       -0.54464465543128
C           10.33846795616053       -0.36250142182640       -0.60123292811323
C           11.41055917330030       -0.18210893980299        0.41846587086244
C           10.40315820098526       -1.21762689945328       -1.69331277936561
C           11.45633686350465       -2.08344877022519       -2.09380785154938
C           11.46650838825915       -2.99388808038330       -3.14020001612958
C           10.39952090767390       -3.24738917670339       -4.01725622916091
N            9.55628579874904       -3.49137177507680       -4.75664175230689
C           12.69735396084975       -3.70203811407000       -3.26535797820268
C           12.86850055807899       -4.66276202834017       -4.27617219705895
N           12.95768052502499       -5.43518126004116       -5.11978895032960
C           13.64354564240521       -3.33896103108012       -2.32046390322497
C           14.96476184813304       -3.84400426577699       -2.15346669772624
C           15.93359504757374       -3.46240927589745       -1.24001038512761
C           15.78554191084500       -2.39649257867861       -0.20874159352739
C           17.12089982671834       -4.20787780573384       -1.39095150558890
C           17.05951311570346       -5.12962626088719       -2.38748200987490
S           15.54690737881748       -5.12690267522296       -3.18882820826088
S           12.99172121283213       -2.11089757628440       -1.26943918955070
S            8.93781806365746       -1.14234238558096       -2.64319341844158
S            6.25961826310686        1.74963838561454       -0.73889273008501
Cl           1.50665915014987        0.40509086501744        2.87137008616679
H            2.38040709917609        1.00101894132209        2.01975545472963
H            3.72036085259129        2.57127833515070        1.46477584260043
H            4.20695071513769        1.10007606298041        0.91280727173780
H            1.88651683141608        2.60108484692871       -0.05525352684938
H            2.42374786448467        1.02389577834456       -0.65659989938438
H            4.04461870627592        3.61433881534091       -0.83672127108793
H            3.07133380164939        2.93536387720511       -2.15300267936349
H            4.08400564392899        0.86391616428704       -3.47094914120849
H            6.32653037327342       -0.45115765279576       -3.59545582467300
H            8.88370122056785        1.04085801437675        0.22978393860035
H           11.06630946177009        0.49056982427541        1.19927601784944
H           12.30872826668701        0.24000363672146       -0.03251402988926
H           11.68046320306352       -1.13489789786296        0.87309218446389
H           14.98604555064922       -2.63911275443564        0.49161005844179
H           15.54671526712024       -1.43790080290678       -0.66966918749539
H           16.71278601884278       -2.29176710200083        0.34816273286172
H           17.98884446572887       -4.05788713908340       -0.77394529500901
H           17.81875748184328       -5.81685743953978       -2.70356714431277

          :  Hamiltonian                  GFN2-xTB          :
         :: total energy             -82.513900838280 Eh    ::
         :: gradient norm              0.000470971360 Eh/a0 ::
         :: HOMO-LUMO gap              1.713939677515 eV    ::
         :: SCC energy               -83.748361939033 Eh    ::
         :: -> dispersion             -0.066489188680 Eh    ::
         :: repulsion energy           1.235069782815 Eh    ::

    * Orbital Energies and Occupations

         #    Occupation            Energy/Eh            Energy/eV
      -------------------------------------------------------------
         1        2.0000           -1.0220167             -27.8105
       ...           ...                  ...                  ...
        64        2.0000           -0.4528732             -12.3233
        65        2.0000           -0.4283135             -11.6550
        66        2.0000           -0.4273322             -11.6283
        67        2.0000           -0.4263904             -11.6027
        68        2.0000           -0.4220350             -11.4842
        69        2.0000           -0.4169588             -11.3460
        70        2.0000           -0.4129026             -11.2357
        71        2.0000           -0.4094426             -11.1415
        72        2.0000           -0.4086924             -11.1211
        73        2.0000           -0.3990174             -10.8578
        74        2.0000           -0.3989247             -10.8553
        75        2.0000           -0.3974370             -10.8148
        76        2.0000           -0.3744765             -10.1900 (HOMO)
        77                         -0.3114904              -8.4761 (LUMO)
        78                         -0.2927693              -7.9667
        79                         -0.2682437              -7.2993
        80                         -0.2412158              -6.5638
        81                         -0.2365713              -6.4374
        82                         -0.2348629              -6.3909
        83                         -0.2285169              -6.2183
        84                         -0.2270722              -6.1789
        85                         -0.2242216              -6.1014
        86                         -0.2028161              -5.5189
        87                         -0.1923310              -5.2336
       ...                                ...                  ...
       163                          1.1932375              32.4696
      -------------------------------------------------------------
                  HL-Gap            0.0629861 Eh            1.7139 eV

     #   Z          covCN         q      C6AA      α(0)
     1   7 N        2.669    -0.308    27.924     7.848
     2   6 C        3.732     0.002    20.631     6.483
     3   6 C        3.823    -0.072    21.853     6.652
     4   6 C        2.986     0.022    27.518     8.605
     5   6 C        3.108    -0.052    29.130     8.843
     6   6 C        3.105    -0.046    29.005     8.824
     7   6 C        3.026     0.018    27.585     8.615
     8   6 C        3.017     0.024    27.440     8.593
     9   6 C        3.104    -0.059    29.330     8.874
    10   6 C        3.120     0.006    27.711     8.622
    11   6 C        3.757    -0.109    22.636     6.783
    12   6 C        3.020     0.005    27.886     8.662
    13   6 C        3.015     0.026    27.411     8.588
    14   6 C        3.150    -0.004    27.836     8.630
    15   6 C        1.910     0.114    28.282     8.589
    16   7 N        0.911    -0.226    25.943     7.367
    17   6 C        3.150    -0.003    27.815     8.627
    18   6 C        1.908     0.114    28.291     8.590
    19   7 N        0.911    -0.223    25.877     7.357
    20   6 C        3.012     0.027    27.392     8.585
    21   6 C        3.022     0.003    27.944     8.671
    22   6 C        3.131     0.004    27.715     8.619
    23   6 C        3.757    -0.109    22.628     6.782
    24   6 C        3.115    -0.051    29.096     8.836
    25   6 C        2.934    -0.016    28.414     8.742
    26  16 S        2.317    -0.004   141.218    20.001
    27  16 S        2.352    -0.020   141.870    20.047
    28  16 S        2.344    -0.026   142.121    20.065
    29  16 S        2.350    -0.052   143.227    20.143
    30  17 Cl       0.839    -0.468   114.524    16.371
    31   1 H        0.879     0.331     0.626     1.238
    32   1 H        0.860     0.169     1.281     1.773
    33   1 H        0.860     0.173     1.256     1.755
    34   1 H        0.924     0.060     2.203     2.321
    35   1 H        0.924     0.059     2.211     2.326
    36   1 H        0.924     0.052     2.300     2.372
    37   1 H        0.924     0.057     2.240     2.340
    38   1 H        0.926     0.044     2.394     2.420
    39   1 H        0.926     0.051     2.304     2.373
    40   1 H        0.926     0.046     2.364     2.404
    41   1 H        0.925     0.057     2.239     2.340
    42   1 H        0.925     0.057     2.231     2.336
    43   1 H        0.925     0.057     2.237     2.339
    44   1 H        0.924     0.057     2.238     2.340
    45   1 H        0.925     0.056     2.246     2.344
    46   1 H        0.925     0.056     2.244     2.342
    47   1 H        0.926     0.046     2.377     2.411
    48   1 H        0.926     0.056     2.250     2.345

Wiberg/Mayer (AO) data.
largest (>0.10) Wiberg bond orders for each atom

     #   Z sym  total        # sym  WBO       # sym  WBO       # sym  WBO
 ---------------------------------------------------------------------------
     1   7 N    3.231 --     2 C    1.020    32 H    0.957    33 H    0.950
                            31 H    0.184
     2   6 C    3.972 --     1 N    1.020    35 H    0.974    34 H    0.972
                             3 C    0.971
     3   6 C    3.994 --     4 C    1.031     2 C    0.971    36 H    0.969
                            37 H    0.965
     4   6 C    3.924 --     5 C    1.566    29 S    1.155     3 C    1.031
     5   6 C    3.984 --     4 C    1.566     6 C    1.307    38 H    0.963
     6   6 C    3.968 --     7 C    1.501     5 C    1.307    39 H    0.960
     7   6 C    3.948 --     6 C    1.501     8 C    1.167    29 S    1.111
     8   6 C    3.939 --     9 C    1.465     7 C    1.167    28 S    1.137
     9   6 C    3.979 --     8 C    1.465    10 C    1.330    40 H    0.960
    10   6 C    3.974 --    12 C    1.414     9 C    1.330    11 C    1.030
    11   6 C    3.994 --    10 C    1.030    41 H    0.981    43 H    0.963
                            42 H    0.962
    12   6 C    3.930 --    10 C    1.414    13 C    1.199    28 S    1.114
    13   6 C    3.945 --    14 C    1.391    12 C    1.199    27 S    1.123
    14   6 C    3.966 --    13 C    1.391    17 C    1.186    15 C    1.114
    15   6 C    3.948 --    16 N    2.772    14 C    1.114
    16   7 N    2.999 --    15 C    2.772
    17   6 C    3.979 --    20 C    1.400    14 C    1.186    18 C    1.111
    18   6 C    3.949 --    19 N    2.777    17 C    1.111
    19   7 N    3.006 --    18 C    2.777
    20   6 C    3.940 --    17 C    1.400    21 C    1.188    27 S    1.126
    21   6 C    3.944 --    22 C    1.443    20 C    1.188    26 S    1.121
    22   6 C    3.972 --    21 C    1.443    24 C    1.289    23 C    1.031
    23   6 C    3.994 --    22 C    1.031    46 H    0.981    45 H    0.963
                            44 H    0.962
    24   6 C    3.985 --    25 C    1.589    22 C    1.289    47 H    0.963
    25   6 C    3.935 --    24 C    1.589    26 S    1.215    48 H    0.968
    26  16 S    2.641 --    25 C    1.215    21 C    1.121
    27  16 S    2.637 --    20 C    1.126    13 C    1.123
    28  16 S    2.599 --     8 C    1.137    12 C    1.114
    29  16 S    2.575 --     4 C    1.155     7 C    1.111
    30  17 Cl   0.782 --    31 H    0.703
    31   1 H    0.890 --    30 Cl   0.703     1 N    0.184
    32   1 H    0.972 --     1 N    0.957
    33   1 H    0.970 --     1 N    0.950
    34   1 H    0.995 --     2 C    0.972
    35   1 H    0.997 --     2 C    0.974
    36   1 H    0.996 --     3 C    0.969
    37   1 H    0.996 --     3 C    0.965
    38   1 H    0.998 --     5 C    0.963
    39   1 H    0.997 --     6 C    0.960
    40   1 H    0.997 --     9 C    0.960
    41   1 H    0.996 --    11 C    0.981
    42   1 H    0.995 --    11 C    0.962
    43   1 H    0.996 --    11 C    0.963
    44   1 H    0.996 --    23 C    0.962
    45   1 H    0.995 --    23 C    0.963
    46   1 H    0.996 --    23 C    0.981
    47   1 H    0.997 --    24 C    0.963
    48   1 H    0.996 --    25 C    0.968
 ---------------------------------------------------------------------------

molecular dipole:
                 x           y           z       tot (Debye)
 q only:        1.770       2.422       0.929
   full:        2.157       2.589       1.373       9.248

           -------------------------------------------------
          | TOTAL ENERGY              -82.513900838280 Eh   |
          | GRADIENT NORM               0.000470971360 Eh/α |
          | HOMO-LUMO GAP               1.713939677515 eV   |
           -------------------------------------------------

 * finished run on 2023/01/23 at 13:56:09.304
