   * xtb version 6.5.1 (fef0646) compiled by 'conda@b96dff2e9fd6' on 2023-01-04
          program call               : xtb init.xyz --opt -c 0 -u 0 -P 16 --input xtb.inp

   ID    Z sym.   atoms
    1    7 N      1
    2    6 C      2-5
    3   17 Cl     6
    4    1 H      7-18

          :  Hamiltonian                  GFN2-xTB          :
 * total energy  :   -22.1282934 Eh     change       -0.9635883E-09 Eh
 * total energy  :   -22.1330356 Eh     change       -0.4742216E-02 Eh
 * total energy  :   -22.1394517 Eh     change       -0.6416076E-02 Eh
 * total energy  :   -22.1449265 Eh     change       -0.5474772E-02 Eh
 * total energy  :   -22.1482312 Eh     change       -0.3304710E-02 Eh
 * total energy  :   -22.1507329 Eh     change       -0.2501765E-02 Eh
 * total energy  :   -22.1517409 Eh     change       -0.1007994E-02 Eh
 * total energy  :   -22.1524886 Eh     change       -0.7477186E-03 Eh
 * total energy  :   -22.1528646 Eh     change       -0.3759329E-03 Eh
 * total energy  :   -22.1529109 Eh     change       -0.4636189E-04 Eh
 * total energy  :   -22.1536763 Eh     change       -0.7775126E-05 Eh
 * total energy  :   -22.1536881 Eh     change       -0.1176934E-04 Eh
 * total energy  :   -22.1536950 Eh     change       -0.6931013E-05 Eh
 * total energy  :   -22.1537035 Eh     change       -0.8427083E-05 Eh
 * total energy  :   -22.1537093 Eh     change       -0.5848094E-05 Eh
 * total energy  :   -22.1537174 Eh     change       -0.8140153E-05 Eh
 * total energy  :   -22.1537255 Eh     change       -0.8073662E-05 Eh
 * total energy  :   -22.1537323 Eh     change       -0.6741952E-05 Eh
 * total energy  :   -22.1537352 Eh     change       -0.2990912E-05 Eh
   *** GEOMETRY OPTIMIZATION CONVERGED AFTER 30 ITERATIONS ***

 final structure:
================
18
 xtb: 6.5.1 (fef0646)
N            1.10104399397874       -0.26846381015130        0.38638951656013
C            2.55778505872265       -0.32730177839796        0.24857809325184
C            2.98809780847444       -1.31575332790989       -0.83863017039531
C            2.50588714941677       -0.87566301961326       -2.21686967754992
C            4.50886288172618       -1.45709198038659       -0.82754718402454
Cl          -0.37247428430063        1.32655540505461       -1.57828349137837
H            0.84456867019530        0.23551858167342        1.22854719813205
H            0.71025536605673       -1.20404406585523        0.43956129260830
H            0.36580909119040        0.55744665056003       -0.70680720641487
H            3.03562304940177       -0.61754835173558        1.19534279304095
H            2.90161193132296        0.67700374211171       -0.01067791907112
H            2.54665146342523       -2.29278786142060       -0.60558622359121
H            2.91566795738067        0.10001869930490       -2.46490674508589
H            1.42341728526527       -0.80771067230821       -2.24957727529413
H            2.83169061858970       -1.58763274980146       -2.97137935944242
H            4.97769424441846       -0.50176942300585       -1.05168864505777
H            4.82587290113761       -2.17795892490339       -1.57662256741138
H            4.86345481357853       -1.79497711321503        0.14400757111322

          :  Hamiltonian                  GFN2-xTB          :
         :: total energy             -22.153735250240 Eh    ::
         :: gradient norm              0.000350491226 Eh/a0 ::
         :: HOMO-LUMO gap              9.132240696168 eV    ::
         :: SCC energy               -22.396183552948 Eh    ::
         :: -> dispersion             -0.010713884206 Eh    ::
         :: repulsion energy           0.242410588897 Eh    ::

    * Orbital Energies and Occupations

         #    Occupation            Energy/Eh            Energy/eV
      -------------------------------------------------------------
         1        2.0000           -1.0156536             -27.6373
       ...           ...                  ...                  ...
         8        2.0000           -0.5369948             -14.6124
         9        2.0000           -0.5337853             -14.5250
        10        2.0000           -0.5072723             -13.8036
        11        2.0000           -0.4916344             -13.3781
        12        2.0000           -0.4795360             -13.0488
        13        2.0000           -0.4738193             -12.8933
        14        2.0000           -0.4646747             -12.6444
        15        2.0000           -0.4453332             -12.1181
        16        2.0000           -0.4419419             -12.0259
        17        2.0000           -0.4366395             -11.8816
        18        2.0000           -0.3973738             -10.8131
        19        2.0000           -0.3926800             -10.6854
        20        2.0000           -0.3924227             -10.6784 (HOMO)
        21                         -0.0568191              -1.5461 (LUMO)
        22                          0.0171803               0.4675
        23                          0.0676663               1.8413
        24                          0.0689455               1.8761
        25                          0.0694442               1.8897
        26                          0.0742698               2.0210
        27                          0.0746772               2.0321
        28                          0.0879614               2.3936
        29                          0.1051376               2.8609
        30                          0.1149481               3.1279
        31                          0.1291842               3.5153
       ...                                ...                  ...
        41                          0.2871332               7.8133
      -------------------------------------------------------------
                  HL-Gap            0.3356037 Eh            9.1322 eV

     #   Z          covCN         q      C6AA      α(0)
     1   7 N        2.698    -0.305    27.838     7.836
     2   6 C        3.735     0.003    20.621     6.481
     3   6 C        3.850    -0.014    20.797     6.486
     4   6 C        3.756    -0.121    22.878     6.820
     5   6 C        3.757    -0.111    22.680     6.790
     6  17 Cl       0.837    -0.488   115.251    16.423
     7   1 H        0.860     0.166     1.294     1.782
     8   1 H        0.860     0.166     1.295     1.782
     9   1 H        0.905     0.332     0.621     1.233
    10   1 H        0.923     0.024     2.681     2.560
    11   1 H        0.924     0.055     2.259     2.350
    12   1 H        0.924     0.029     2.594     2.519
    13   1 H        0.925     0.046     2.365     2.405
    14   1 H        0.925     0.058     2.219     2.329
    15   1 H        0.925     0.041     2.440     2.443
    16   1 H        0.925     0.041     2.434     2.440
    17   1 H        0.925     0.044     2.394     2.420
    18   1 H        0.925     0.033     2.542     2.494

Wiberg/Mayer (AO) data.
largest (>0.10) Wiberg bond orders for each atom

     #   Z sym  total        # sym  WBO       # sym  WBO       # sym  WBO
 ---------------------------------------------------------------------------
     1   7 N    3.240 --     2 C    1.002     7 H    0.959     8 H    0.957
                             9 H    0.210
     2   6 C    3.973 --     1 N    1.002     3 C    0.995    11 H    0.972
                            10 H    0.972
     3   6 C    3.995 --     4 C    1.010     5 C    1.007     2 C    0.995
                            12 H    0.967
     4   6 C    3.993 --     3 C    1.010    15 H    0.986    13 H    0.986
                            14 H    0.981
     5   6 C    3.996 --     3 C    1.007    16 H    0.987    18 H    0.986
                            17 H    0.986
     6  17 Cl   0.765 --     9 H    0.674
     7   1 H    0.972 --     1 N    0.959
     8   1 H    0.972 --     1 N    0.957
     9   1 H    0.889 --     6 Cl   0.674     1 N    0.210
    10   1 H    0.999 --     2 C    0.972
    11   1 H    0.997 --     2 C    0.972
    12   1 H    0.999 --     3 C    0.967
    13   1 H    0.998 --     4 C    0.986
    14   1 H    0.997 --     4 C    0.981
    15   1 H    0.998 --     4 C    0.986
    16   1 H    0.998 --     5 C    0.987
    17   1 H    0.998 --     5 C    0.986
    18   1 H    0.999 --     5 C    0.986
 ---------------------------------------------------------------------------

molecular dipole:
                 x           y           z       tot (Debye)
 q only:        1.141      -1.103       1.142
   full:        0.949      -1.010       1.220       4.694

           -------------------------------------------------
          | TOTAL ENERGY              -22.153735250240 Eh   |
          | GRADIENT NORM               0.000350491226 Eh/α |
          | HOMO-LUMO GAP               9.132240696168 eV   |
           -------------------------------------------------

 * finished run on 2023/01/23 at 18:45:53.826
