   * xtb version 6.5.1 (fef0646) compiled by 'conda@b96dff2e9fd6' on 2023-01-04
          program call               : xtb init.xyz --opt -c 0 -u 0 -P 16 --alpb water

   ID    Z sym.   atoms
    1    7 N      1
    2    6 C      2-5
    3   17 Cl     6
    4    1 H      7-18

      * Solvation model:               ALPB
        Solvent                        water
        Solvent mass                       1.8000E+01 g/mol
          :  Hamiltonian                  GFN2-xTB          :
 * total energy  :   -22.1860446 Eh     change       -0.6684999E-09 Eh
 * total energy  :   -22.1896759 Eh     change       -0.3631313E-02 Eh
 * total energy  :   -22.1908736 Eh     change       -0.1197671E-02 Eh
 * total energy  :   -22.1912863 Eh     change       -0.4127148E-03 Eh
 * total energy  :   -22.1916978 Eh     change       -0.4115070E-03 Eh
 * total energy  :   -22.1926125 Eh     change       -0.9146587E-03 Eh
 * total energy  :   -22.1935572 Eh     change       -0.9446647E-03 Eh
 * total energy  :   -22.1928383 Eh     change        0.7188536E-03 Eh
 * total energy  :   -22.1944795 Eh     change       -0.1641230E-02 Eh
 * total energy  :   -22.1950681 Eh     change       -0.5885678E-03 Eh
 * total energy  :   -22.1957715 Eh     change       -0.7033665E-03 Eh
 * total energy  :   -22.1960627 Eh     change       -0.2912631E-03 Eh
 * total energy  :   -22.1963162 Eh     change       -0.2534849E-03 Eh
 * total energy  :   -22.1963790 Eh     change       -0.6277058E-04 Eh
 * total energy  :   -22.1964077 Eh     change       -0.2868346E-04 Eh
 * total energy  :   -22.1964267 Eh     change       -0.1902517E-04 Eh
 * total energy  :   -22.1964384 Eh     change       -0.1173889E-04 Eh
 * total energy  :   -22.1964472 Eh     change       -0.8805004E-05 Eh
 * total energy  :   -22.1964508 Eh     change       -0.3565845E-05 Eh
   *** GEOMETRY OPTIMIZATION CONVERGED AFTER 19 ITERATIONS ***

 final structure:
================
18
 xtb: 6.5.1 (fef0646)
N            1.35156164791994       -0.34972757272528       -0.07489487199795
C            2.77384197957060        0.04535447000314       -0.00529551351681
C            3.14548149487992        1.04371121498013       -1.10331165004863
C            2.56381320370332        2.42286545234728       -0.80653256444994
C            4.66678055204745        1.12212446999690       -1.22598530357174
Cl          -0.91530667774096        1.67222279444444        0.35103937432091
H            1.12759345053476       -1.03850185133970        0.64681003944596
H            1.12922769719889       -0.73764789832551       -0.99480281270655
H            0.69737052928070        0.45578197514200        0.07618473740130
H            3.38701081210929       -0.85111769083666       -0.10985752185417
H            2.96485471434355        0.49505650510458        0.96853278389863
H            2.73889084326387        0.69156091707903       -2.05621618358579
H            3.00428750834015        2.83479700101529        0.09888541426997
H            1.48598146579640        2.38422946613993       -0.66886110730139
H            2.77124041544176        3.10875495222603       -1.62400652118401
H            5.10651223330046        1.44333477765437       -0.28509962492669
H            4.94602023848324        1.84001580885174       -1.99218898676320
H            5.08655789152628        0.15634520824266       -1.49427968743151

          :  Hamiltonian                  GFN2-xTB          :
         :: total energy             -22.196450809842 Eh    ::
         :: gradient norm              0.000640068853 Eh/a0 ::
         :: HOMO-LUMO gap             10.139611611482 eV    ::
         :: SCC energy               -22.448308455747 Eh    ::
         :: -> dispersion             -0.010010581391 Eh    ::
         :: -> Gsolv                  -0.071976218850 Eh    ::
         :: repulsion energy           0.251822287604 Eh    ::

    * Orbital Energies and Occupations

         #    Occupation            Energy/Eh            Energy/eV
      -------------------------------------------------------------
         1        2.0000           -1.0066961             -27.3936
       ...           ...                  ...                  ...
         8        2.0000           -0.5476706             -14.9029
         9        2.0000           -0.5344263             -14.5425
        10        2.0000           -0.5007424             -13.6259
        11        2.0000           -0.4857795             -13.2187
        12        2.0000           -0.4738282             -12.8935
        13        2.0000           -0.4576484             -12.4532
        14        2.0000           -0.4498634             -12.2414
        15        2.0000           -0.4352486             -11.8437
        16        2.0000           -0.4290712             -11.6756
        17        2.0000           -0.4239266             -11.5356
        18        2.0000           -0.4035213             -10.9804
        19        2.0000           -0.4010436             -10.9130
        20        2.0000           -0.3996763             -10.8757 (HOMO)
        21                         -0.0270524              -0.7361 (LUMO)
        22                          0.0731369               1.9902
        23                          0.0903467               2.4585
        24                          0.0948314               2.5805
        25                          0.1117733               3.0415
        26                          0.1168976               3.1809
        27                          0.1172771               3.1913
        28                          0.1189655               3.2372
        29                          0.1194378               3.2501
        30                          0.1263750               3.4388
        31                          0.1380327               3.7561
       ...                                ...                  ...
        41                          0.3038449               8.2680
      -------------------------------------------------------------
                  HL-Gap            0.3726239 Eh           10.1396 eV

     #   Z          covCN         q      C6AA      α(0)
     1   7 N        3.483    -0.164    24.529     7.356
     2   6 C        3.736    -0.035    21.278     6.583
     3   6 C        3.850    -0.017    20.839     6.493
     4   6 C        3.756    -0.121    22.877     6.820
     5   6 C        3.757    -0.127    22.989     6.836
     6  17 Cl       0.032    -0.951   125.012    17.016
     7   1 H        0.859     0.303     0.705     1.316
     8   1 H        0.859     0.294     0.731     1.339
     9   1 H        0.889     0.290     0.742     1.348
    10   1 H        0.924     0.106     1.732     2.058
    11   1 H        0.925     0.100     1.787     2.091
    12   1 H        0.924     0.055     2.262     2.352
    13   1 H        0.925     0.039     2.468     2.457
    14   1 H        0.925     0.049     2.338     2.391
    15   1 H        0.925     0.034     2.532     2.488
    16   1 H        0.925     0.047     2.352     2.398
    17   1 H        0.925     0.046     2.365     2.405
    18   1 H        0.925     0.052     2.294     2.368

Wiberg/Mayer (AO) data.
largest (>0.10) Wiberg bond orders for each atom

     #   Z sym  total        # sym  WBO       # sym  WBO       # sym  WBO
 ---------------------------------------------------------------------------
     1   7 N    3.648 --     2 C    0.966     8 H    0.897     7 H    0.894
                             9 H    0.840
     2   6 C    3.927 --     3 C    0.997    11 H    0.967     1 N    0.966
                            10 H    0.966
     3   6 C    3.994 --     4 C    1.010     5 C    1.006     2 C    0.997
                            12 H    0.965
     4   6 C    3.994 --     3 C    1.010    15 H    0.986    13 H    0.986
                            14 H    0.979
     5   6 C    3.993 --     3 C    1.006    16 H    0.986    17 H    0.985
                            18 H    0.985
     6  17 Cl   0.096
     7   1 H    0.908 --     1 N    0.894
     8   1 H    0.913 --     1 N    0.897
     9   1 H    0.916 --     1 N    0.840
    10   1 H    0.989 --     2 C    0.966
    11   1 H    0.990 --     2 C    0.967
    12   1 H    0.997 --     3 C    0.965
    13   1 H    0.999 --     4 C    0.986
    14   1 H    0.998 --     4 C    0.979
    15   1 H    0.999 --     4 C    0.986
    16   1 H    0.998 --     5 C    0.986
    17   1 H    0.998 --     5 C    0.985
    18   1 H    0.997 --     5 C    0.985
 ---------------------------------------------------------------------------

molecular dipole:
                 x           y           z       tot (Debye)
 q only:        4.339      -3.586      -0.793
   full:        3.619      -3.175      -0.681      12.360

           -------------------------------------------------
          | TOTAL ENERGY              -22.196450809842 Eh   |
          | GRADIENT NORM               0.000640068853 Eh/α |
          | HOMO-LUMO GAP              10.139611611482 eV   |
           -------------------------------------------------

 * finished run on 2023/01/24 at 15:12:45.156
