   * xtb version 6.5.1 (fef0646) compiled by 'conda@b96dff2e9fd6' on 2023-01-04
          program call               : xtb init.xyz --opt -c 1 -u 0 -P 16 --input xtb.inp

   ID    Z sym.   atoms
    1    7 N      1, 10, 11
    2    6 C      2-9, 12-17
    3    1 H      18-33

          :  Hamiltonian                  GFN2-xTB          :
 * total energy  :   -46.3921139 Eh     change       -0.4005273E-08 Eh
 * total energy  :   -46.3977403 Eh     change       -0.5626426E-02 Eh
 * total energy  :   -46.3994612 Eh     change       -0.1720881E-02 Eh
 * total energy  :   -46.4000700 Eh     change       -0.6088262E-03 Eh
 * total energy  :   -46.4006671 Eh     change       -0.5970849E-03 Eh
 * total energy  :   -46.4011488 Eh     change       -0.4816430E-03 Eh
 * total energy  :   -46.4016442 Eh     change       -0.4953866E-03 Eh
 * total energy  :   -46.4020889 Eh     change       -0.4447467E-03 Eh
 * total energy  :   -46.4024438 Eh     change       -0.3549285E-03 Eh
 * total energy  :   -46.4027956 Eh     change       -0.3517567E-03 Eh
 * total energy  :   -46.4055336 Eh     change       -0.3291306E-04 Eh
 * total energy  :   -46.4055511 Eh     change       -0.1755214E-04 Eh
 * total energy  :   -46.4055648 Eh     change       -0.1370834E-04 Eh
 * total energy  :   -46.4055675 Eh     change       -0.2629995E-05 Eh
 * total energy  :   -46.4055736 Eh     change       -0.6168388E-05 Eh
 * total energy  :   -46.4055777 Eh     change       -0.4046216E-05 Eh
 * total energy  :   -46.4055813 Eh     change       -0.3596629E-05 Eh
 * total energy  :   -46.4055882 Eh     change       -0.6917177E-05 Eh
 * total energy  :   -46.4055920 Eh     change       -0.3805214E-05 Eh
   *** GEOMETRY OPTIMIZATION CONVERGED AFTER 44 ITERATIONS ***

 final structure:
================
33
 xtb: 6.5.1 (fef0646)
N            3.05970127775964       -0.86268095844932       -3.49538317075535
C            2.50961266587626       -0.15862173500707       -2.30017160430362
C            3.11283732824058       -0.81931913078699       -1.05596981837249
C            4.61232654684012       -0.81350072493476       -1.19569376967247
C            5.36626364695650        0.27993114882410       -0.77720954282500
C            6.72188751560089        0.33281602925629       -1.00476367668855
C            5.26276295337695       -1.86562203418881       -1.85652526493980
C            6.62610692209567       -1.83629570125499       -2.06676920620549
C            7.38097177002418       -0.72471244475040       -1.66169144461556
N            8.73234098662465       -0.79078361371588       -1.71061156728705
N            9.45954932307192        0.14575604385569       -2.12177203829425
C           10.82050374992185        0.03636415389737       -1.93863473964334
C           11.44474863242454       -1.01280896169203       -1.24678725635127
C           12.81450383715641       -1.01562181919807       -1.10337870071458
C           13.57496868798807        0.01709983514638       -1.63931222153963
C           12.96391325192614        1.05845399564810       -2.32385994182338
C           11.59287432543261        1.07318621516180       -2.47699012879179
H            3.04491378043543       -0.28511157888827       -4.34024221110629
H            2.55030355752323       -1.73393244382184       -3.67642624039778
H            4.05561288309468       -1.11261495300161       -3.21764951851877
H            1.42129566225563       -0.20824542176202       -2.30261884703621
H            2.81980017916607        0.88591506353807       -2.34518941853577
H            2.73786269028611       -1.83887095950782       -0.95429629415457
H            2.80547799494271       -0.25909822766467       -0.17480942145517
H            4.87986293939011        1.09694212220196       -0.26537655175294
H            7.30791299485399        1.17265491111468       -0.66609397041396
H            4.71956538508241       -2.76871620149462       -2.11004963281506
H            7.12566278571430       -2.65939859680055       -2.55235903303504
H           10.83422509753280       -1.80330098088391       -0.83635058721481
H           13.29954595427733       -1.82002310641361       -0.57129922853873
H           14.64780078376143        0.00855580346786       -1.52080202551589
H           13.56195376399577        1.85649881094360       -2.73633709481702
H           11.09361012637650        1.87106546115703       -3.00455583187115

          :  Hamiltonian                  GFN2-xTB          :
         :: total energy             -46.405592005524 Eh    ::
         :: gradient norm              0.000513382369 Eh/a0 ::
         :: HOMO-LUMO gap              0.862632864040 eV    ::
         :: SCC energy               -47.186108656572 Eh    ::
         :: -> dispersion             -0.029642684339 Eh    ::
         :: repulsion energy           0.780725527936 Eh    ::

    * Orbital Energies and Occupations

         #    Occupation            Energy/Eh            Energy/eV
      -------------------------------------------------------------
         1        2.0000           -0.8720451             -23.7296
       ...           ...                  ...                  ...
        31        2.0000           -0.5716441             -15.5552
        32        2.0000           -0.5690075             -15.4835
        33        2.0000           -0.5632155             -15.3259
        34        2.0000           -0.5598470             -15.2342
        35        2.0000           -0.5524282             -15.0323
        36        2.0000           -0.5371955             -14.6178
        37        2.0000           -0.5256005             -14.3023
        38        2.0000           -0.5238437             -14.2545
        39        2.0000           -0.5134953             -13.9729
        40        2.0000           -0.5069190             -13.7940
        41        2.0000           -0.4942203             -13.4484
        42        2.0000           -0.4885401             -13.2939
        43        2.0000           -0.4324951             -11.7688 (HOMO)
        44        0.0000           -0.4007939             -10.9062 (LUMO)
        45                         -0.3455208              -9.4021
        46                         -0.3295512              -8.9675
        47                         -0.3103753              -8.4457
        48                         -0.2879510              -7.8355
        49                         -0.2334802              -6.3533
        50                         -0.2124367              -5.7807
        51                         -0.1732916              -4.7155
        52                         -0.1324636              -3.6045
        53                         -0.0789569              -2.1485
        54                         -0.0711344              -1.9357
       ...                                ...                  ...
        84                          0.5785990              15.7445
      -------------------------------------------------------------
                  HL-Gap            0.0317012 Eh            0.8626 eV

     #   Z          covCN         q      C6AA      α(0)
     1   7 N        3.481    -0.147    24.165     7.301
     2   6 C        3.735    -0.029    21.174     6.567
     3   6 C        3.809    -0.090    22.204     6.708
     4   6 C        2.971    -0.021    28.537     8.763
     5   6 C        2.918    -0.039    28.963     8.825
     6   6 C        2.920    -0.038    28.951     8.823
     7   6 C        2.918    -0.068    29.695     8.936
     8   6 C        2.921    -0.045    29.126     8.850
     9   6 C        2.922     0.078    26.260     8.403
    10   7 N        1.946    -0.093    23.800     7.234
    11   7 N        1.930    -0.103    24.020     7.267
    12   6 C        2.942     0.074    26.354     8.420
    13   6 C        2.917    -0.026    28.653     8.778
    14   6 C        2.916    -0.022    28.555     8.763
    15   6 C        2.921    -0.012    28.303     8.724
    16   6 C        2.916    -0.022    28.565     8.764
    17   6 C        2.927    -0.024    28.604     8.771
    18   1 H        0.859     0.257     0.859     1.452
    19   1 H        0.859     0.259     0.849     1.444
    20   1 H        0.855     0.280     0.776     1.381
    21   1 H        0.925     0.099     1.797     2.096
    22   1 H        0.924     0.101     1.775     2.083
    23   1 H        0.924     0.067     2.118     2.276
    24   1 H        0.925     0.090     1.883     2.146
    25   1 H        0.926     0.047     2.362     2.403
    26   1 H        0.926     0.056     2.249     2.345
    27   1 H        0.925     0.031     2.566     2.505
    28   1 H        0.926     0.053     2.282     2.362
    29   1 H        0.926     0.059     2.213     2.327
    30   1 H        0.926     0.054     2.271     2.357
    31   1 H        0.926     0.058     2.219     2.330
    32   1 H        0.926     0.056     2.249     2.345
    33   1 H        0.926     0.062     2.170     2.304

Wiberg/Mayer (AO) data.
largest (>0.10) Wiberg bond orders for each atom

     #   Z sym  total        # sym  WBO       # sym  WBO       # sym  WBO
 ---------------------------------------------------------------------------
     1   7 N    3.661 --     2 C    0.936    18 H    0.920    19 H    0.918
                            20 H    0.819
     2   6 C    3.897 --     3 C    0.991    22 H    0.969    21 H    0.969
                             1 N    0.936
     3   6 C    3.979 --     4 C    1.006     2 C    0.991    23 H    0.970
                            24 H    0.962
     4   6 C    3.971 --     5 C    1.384     7 C    1.346     3 C    1.006
     5   6 C    3.990 --     6 C    1.487     4 C    1.384    25 H    0.966
     6   6 C    3.981 --     5 C    1.487     9 C    1.282    26 H    0.968
     7   6 C    3.988 --     8 C    1.465     4 C    1.346    27 H    0.959
     8   6 C    3.978 --     7 C    1.465     9 C    1.309    28 H    0.968
     9   6 C    3.974 --     8 C    1.309     6 C    1.282    10 N    1.212
    10   7 N    3.248 --    11 N    1.670     9 C    1.212
    11   7 N    3.076 --    10 N    1.670    12 C    1.164
    12   6 C    3.975 --    17 C    1.326    13 C    1.317    11 N    1.164
    13   6 C    3.985 --    14 C    1.484    12 C    1.317    29 H    0.966
    14   6 C    3.990 --    13 C    1.484    15 C    1.409    30 H    0.968
    15   6 C    3.973 --    16 C    1.423    14 C    1.409    31 H    0.969
    16   6 C    3.990 --    17 C    1.470    15 C    1.423    32 H    0.968
    17   6 C    3.978 --    16 C    1.470    12 C    1.326    33 H    0.967
    18   1 H    0.934 --     1 N    0.920
    19   1 H    0.933 --     1 N    0.918
    20   1 H    0.921 --     1 N    0.819
    21   1 H    0.989 --     2 C    0.969
    22   1 H    0.990 --     2 C    0.969
    23   1 H    0.995 --     3 C    0.970
    24   1 H    0.991 --     3 C    0.962
    25   1 H    0.997 --     5 C    0.966
    26   1 H    0.997 --     6 C    0.968
    27   1 H    0.998 --     7 C    0.959
    28   1 H    0.997 --     8 C    0.968
    29   1 H    0.997 --    13 C    0.966
    30   1 H    0.997 --    14 C    0.968
    31   1 H    0.997 --    15 C    0.969
    32   1 H    0.996 --    16 C    0.968
    33   1 H    0.996 --    17 C    0.967
 ---------------------------------------------------------------------------

molecular dipole:
                 x           y           z       tot (Debye)
 q only:        8.517      -1.121      -5.648
   full:        8.525      -1.252      -5.744      26.320

           -------------------------------------------------
          | TOTAL ENERGY              -46.405592005524 Eh   |
          | GRADIENT NORM               0.000513382369 Eh/α |
          | HOMO-LUMO GAP               0.862632864040 eV   |
           -------------------------------------------------

 * finished run on 2023/01/23 at 19:03:11.942
