   * xtb version 6.5.1 (fef0646) compiled by 'conda@b96dff2e9fd6' on 2023-01-04
          program call               : xtb init.xyz --opt -c 1 -u 0 -P 16

   ID    Z sym.   atoms
    1    7 N      1
    2    6 C      2-8
    3    1 H      9-18

          :  Hamiltonian                  GFN2-xTB          :
 * total energy  :   -22.5527050 Eh     change       -0.4105090E-09 Eh
 * total energy  :   -22.5544618 Eh     change       -0.1756809E-02 Eh
 * total energy  :   -22.5546735 Eh     change       -0.2116968E-03 Eh
 * total energy  :   -22.5547126 Eh     change       -0.3904815E-04 Eh
 * total energy  :   -22.5547259 Eh     change       -0.1334641E-04 Eh
 * total energy  :   -22.5547305 Eh     change       -0.4546367E-05 Eh
   *** GEOMETRY OPTIMIZATION CONVERGED AFTER 6 ITERATIONS ***

 final structure:
================
18
 xtb: 6.5.1 (fef0646)
N            1.00079680215036       -0.60890195960850       -0.24095760953314
C            2.39923015917735       -0.07770576974446       -0.03133320705484
C            2.88817290582971        0.54683835161211       -1.30697914585563
C            2.65141729814763        1.89389215854264       -1.56097762335353
C            3.08720449357313        2.46316990577573       -2.74461463224480
C            3.75481847761953        1.69012737902423       -3.68093511554264
C            3.98727442353760        0.34632921985084       -3.43552851889523
C            3.55325422457539       -0.22646580664502       -2.25296123309074
H            0.62693107227289       -1.04442422556834        0.61141726890383
H            1.01229530863909       -1.30354744068420       -0.99936227926239
H            0.38432424841276        0.16374525844603       -0.52519870088542
H            3.03546853971881       -0.91168120519630        0.26641799029120
H            2.36416978215850        0.65449749755963        0.77590217747903
H            2.14585802948006        2.50248314199539       -0.82504500743411
H            2.91084393423312        3.51041824064871       -2.93258346527587
H            4.10038559255509        2.13692537933057       -4.59971953931666
H            4.51169350678153       -0.25462854219028       -4.16145174928789
H            3.75083120113743       -1.27042158314882       -2.05619960964114

          :  Hamiltonian                  GFN2-xTB          :
         :: total energy             -22.554730478816 Eh    ::
         :: gradient norm              0.000810125127 Eh/a0 ::
         :: HOMO-LUMO gap              4.559047215004 eV    ::
         :: SCC energy               -22.957496730985 Eh    ::
         :: -> dispersion             -0.012077246542 Eh    ::
         :: repulsion energy           0.402723645414 Eh    ::

    * Orbital Energies and Occupations

         #    Occupation            Energy/Eh            Energy/eV
      -------------------------------------------------------------
         1        2.0000           -0.8911237             -24.2487
       ...           ...                  ...                  ...
         9        2.0000           -0.7121851             -19.3795
        10        2.0000           -0.7050612             -19.1857
        11        2.0000           -0.6695763             -18.2201
        12        2.0000           -0.6662360             -18.1292
        13        2.0000           -0.6385455             -17.3757
        14        2.0000           -0.6225060             -16.9393
        15        2.0000           -0.6154229             -16.7465
        16        2.0000           -0.6126800             -16.6719
        17        2.0000           -0.6111815             -16.6311
        18        2.0000           -0.5595938             -15.2273
        19        2.0000           -0.5544319             -15.0869
        20        2.0000           -0.5431247             -14.7792
        21        2.0000           -0.5408349             -14.7169 (HOMO)
        22                         -0.3732930             -10.1578 (LUMO)
        23                         -0.3586540              -9.7595
        24                         -0.2621414              -7.1332
        25                         -0.2214388              -6.0257
        26                         -0.1520710              -4.1381
        27                         -0.0926656              -2.5216
        28                         -0.0900246              -2.4497
        29                         -0.0489532              -1.3321
        30                         -0.0187627              -0.5106
        31                          0.0057009               0.1551
        32                          0.0265073               0.7213
       ...                                ...                  ...
        42                          0.5266824              14.3318
      -------------------------------------------------------------
                  HL-Gap            0.1675419 Eh            4.5590 eV

     #   Z          covCN         q      C6AA      α(0)
     1   7 N        3.482    -0.130    23.804     7.246
     2   6 C        3.735    -0.035    21.287     6.584
     3   6 C        2.971    -0.015    28.373     8.737
     4   6 C        2.922    -0.038    28.950     8.823
     5   6 C        2.918    -0.019    28.480     8.751
     6   6 C        2.920    -0.015    28.377     8.736
     7   6 C        2.918    -0.019    28.480     8.751
     8   6 C        2.922    -0.038    28.951     8.824
     9   1 H        0.859     0.267     0.819     1.418
    10   1 H        0.859     0.271     0.807     1.407
    11   1 H        0.859     0.271     0.807     1.407
    12   1 H        0.924     0.105     1.736     2.061
    13   1 H        0.924     0.105     1.736     2.061
    14   1 H        0.926     0.045     2.386     2.415
    15   1 H        0.926     0.065     2.139     2.287
    16   1 H        0.926     0.068     2.103     2.267
    17   1 H        0.926     0.065     2.139     2.287
    18   1 H        0.926     0.045     2.387     2.416

Wiberg/Mayer (AO) data.
largest (>0.10) Wiberg bond orders for each atom

     #   Z sym  total        # sym  WBO       # sym  WBO       # sym  WBO
 ---------------------------------------------------------------------------
     1   7 N    3.674 --     9 H    0.914    11 H    0.911    10 H    0.911
                             2 C    0.903
     2   6 C    3.883 --     3 C    1.006    13 H    0.966    12 H    0.966
                             1 N    0.903
     3   6 C    3.972 --     4 C    1.406     8 C    1.406     2 C    1.006
                             6 C    0.107
     4   6 C    3.991 --     5 C    1.446     3 C    1.406    14 H    0.968
                             7 C    0.109
     5   6 C    3.989 --     4 C    1.446     6 C    1.437    15 H    0.968
                             8 C    0.109
     6   6 C    3.987 --     5 C    1.437     7 C    1.437    16 H    0.968
                             3 C    0.107
     7   6 C    3.989 --     8 C    1.446     6 C    1.437    17 H    0.968
                             4 C    0.109
     8   6 C    3.991 --     7 C    1.446     3 C    1.406    18 H    0.968
                             5 C    0.109
     9   1 H    0.928 --     1 N    0.914
    10   1 H    0.927 --     1 N    0.911
    11   1 H    0.927 --     1 N    0.911
    12   1 H    0.989 --     2 C    0.966
    13   1 H    0.989 --     2 C    0.966
    14   1 H    0.998 --     4 C    0.968
    15   1 H    0.995 --     5 C    0.968
    16   1 H    0.995 --     6 C    0.968
    17   1 H    0.995 --     7 C    0.968
    18   1 H    0.998 --     8 C    0.968
 ---------------------------------------------------------------------------

molecular dipole:
                 x           y           z       tot (Debye)
 q only:        2.762      -0.508      -1.281
   full:        2.552      -0.625      -1.199       7.341

           -------------------------------------------------
          | TOTAL ENERGY              -22.554730478816 Eh   |
          | GRADIENT NORM               0.000810125127 Eh/α |
          | HOMO-LUMO GAP               4.559047215004 eV   |
           -------------------------------------------------

 * finished run on 2023/01/23 at 13:45:42.021
