   * xtb version 6.5.1 (fef0646) compiled by 'conda@b96dff2e9fd6' on 2023-01-04
          program call               : xtb init.xyz --opt -c 1 -u 0 -P 16 --alpb water

   ID    Z sym.   atoms
    1    7 N      1
    2    6 C      2-5
    3    1 H      6-17

      * Solvation model:               ALPB
        Solvent                        water
        Solvent mass                       1.8000E+01 g/mol
          :  Hamiltonian                  GFN2-xTB          :
 * total energy  :   -17.2800082 Eh     change       -0.9002576E-11 Eh
 * total energy  :   -17.2812635 Eh     change       -0.1255244E-02 Eh
 * total energy  :   -17.2814408 Eh     change       -0.1773050E-03 Eh
 * total energy  :   -17.2814714 Eh     change       -0.3059105E-04 Eh
 * total energy  :   -17.2814850 Eh     change       -0.1367278E-04 Eh
 * total energy  :   -17.2814947 Eh     change       -0.9706434E-05 Eh
 * total energy  :   -17.2815003 Eh     change       -0.5578728E-05 Eh
 * total energy  :   -17.2815016 Eh     change       -0.1293253E-05 Eh
   *** GEOMETRY OPTIMIZATION CONVERGED AFTER 8 ITERATIONS ***

 final structure:
================
17
 xtb: 6.5.1 (fef0646)
N            1.01484728320038        0.00094621327853       -0.02554080858402
C            2.49528560521871        0.06354641760926       -0.07522160090983
C            2.99863512482115        0.59435065042727       -1.41988986267151
C            2.52087584092828        2.02509243216334       -1.66787218357296
C            4.52512977232575        0.53501113593717       -1.42568721833310
H            0.69991958247835       -0.39350701099330        0.86773280195278
H            0.65918388306832       -0.58389427385573       -0.79060480122208
H            0.62295132505531        0.94412593023023       -0.12624648989960
H            2.89880070555416       -0.93514891911204        0.09048888503753
H            2.85045277981124        0.71621034895564        0.72272245162934
H            2.63166657453257       -0.04793224580203       -2.22625190895073
H            2.78803765320160        2.67039928282773       -0.83419291532710
H            1.44908320498839        2.08005620664426       -1.83731660101862
H            3.00222459226270        2.42519184424161       -2.55676595088681
H            4.93798249464842        1.17343274749097       -0.64823217816257
H            4.91650763830361        0.87482509454992       -2.38088538661843
H            4.87881593960105       -0.47965585459283       -1.26100623246229

          :  Hamiltonian                  GFN2-xTB          :
         :: total energy             -17.281501618481 Eh    ::
         :: gradient norm              0.000175903046 Eh/a0 ::
         :: HOMO-LUMO gap             10.421235705070 eV    ::
         :: SCC energy               -17.534605686862 Eh    ::
         :: -> dispersion             -0.007805460680 Eh    ::
         :: -> Gsolv                  -0.114449339916 Eh    ::
         :: repulsion energy           0.253081763225 Eh    ::

    * Orbital Energies and Occupations

         #    Occupation            Energy/Eh            Energy/eV
      -------------------------------------------------------------
         1        2.0000           -0.6914761             -18.8160
       ...           ...                  ...                  ...
         4        2.0000           -0.5974267             -16.2568
         5        2.0000           -0.5911524             -16.0861
         6        2.0000           -0.5819879             -15.8367
         7        2.0000           -0.5594805             -15.2242
         8        2.0000           -0.5457363             -14.8502
         9        2.0000           -0.5149210             -14.0117
        10        2.0000           -0.4970949             -13.5266
        11        2.0000           -0.4817905             -13.1102
        12        2.0000           -0.4662850             -12.6883
        13        2.0000           -0.4586269             -12.4799
        14        2.0000           -0.4451199             -12.1123
        15        2.0000           -0.4405297             -11.9874
        16        2.0000           -0.4322122             -11.7611 (HOMO)
        17                         -0.0492388              -1.3399 (LUMO)
        18                          0.0485040               1.3199
        19                          0.0745251               2.0279
        20                          0.0902239               2.4551
        21                          0.1071927               2.9169
        22                          0.1153625               3.1392
        23                          0.1528651               4.1597
        24                          0.1673460               4.5537
        25                          0.1778886               4.8406
        26                          0.2116327               5.7588
        27                          0.2190882               5.9617
       ...                                ...                  ...
        32                          0.2967896               8.0761
      -------------------------------------------------------------
                  HL-Gap            0.3829734 Eh           10.4212 eV

     #   Z          covCN         q      C6AA      α(0)
     1   7 N        3.484    -0.157    24.382     7.334
     2   6 C        3.737    -0.044    21.455     6.610
     3   6 C        3.849    -0.019    20.875     6.499
     4   6 C        3.755    -0.136    23.172     6.864
     5   6 C        3.758    -0.128    22.999     6.837
     6   1 H        0.859     0.317     0.666     1.278
     7   1 H        0.859     0.306     0.694     1.305
     8   1 H        0.859     0.302     0.707     1.317
     9   1 H        0.925     0.106     1.728     2.056
    10   1 H        0.924     0.108     1.712     2.046
    11   1 H        0.924     0.059     2.213     2.326
    12   1 H        0.925     0.053     2.286     2.365
    13   1 H        0.925     0.057     2.238     2.339
    14   1 H        0.925     0.041     2.435     2.440
    15   1 H        0.925     0.047     2.353     2.399
    16   1 H        0.925     0.042     2.425     2.435
    17   1 H        0.925     0.045     2.378     2.411

Wiberg/Mayer (AO) data.
largest (>0.10) Wiberg bond orders for each atom

     #   Z sym  total        # sym  WBO       # sym  WBO       # sym  WBO
 ---------------------------------------------------------------------------
     1   7 N    3.656 --     2 C    0.966     7 H    0.891     8 H    0.890
                             6 H    0.887
     2   6 C    3.926 --     3 C    0.998     9 H    0.966     1 N    0.966
                            10 H    0.965
     3   6 C    3.993 --     4 C    1.009     5 C    1.006     2 C    0.998
                            11 H    0.965
     4   6 C    3.992 --     3 C    1.009    12 H    0.985    14 H    0.984
                            13 H    0.981
     5   6 C    3.993 --     3 C    1.006    15 H    0.986    16 H    0.985
                            17 H    0.985
     6   1 H    0.900 --     1 N    0.887
     7   1 H    0.906 --     1 N    0.891
     8   1 H    0.909 --     1 N    0.890
     9   1 H    0.989 --     2 C    0.966
    10   1 H    0.988 --     2 C    0.965
    11   1 H    0.997 --     3 C    0.965
    12   1 H    0.997 --     4 C    0.985
    13   1 H    0.997 --     4 C    0.981
    14   1 H    0.998 --     4 C    0.984
    15   1 H    0.998 --     5 C    0.986
    16   1 H    0.998 --     5 C    0.985
    17   1 H    0.998 --     5 C    0.985
 ---------------------------------------------------------------------------

molecular dipole:
                 x           y           z       tot (Debye)
 q only:        2.174       0.053      -0.089
   full:        2.106       0.074      -0.123       5.366

           -------------------------------------------------
          | TOTAL ENERGY              -17.281501618481 Eh   |
          | GRADIENT NORM               0.000175903046 Eh/α |
          | HOMO-LUMO GAP              10.421235705070 eV   |
           -------------------------------------------------

 * finished run on 2023/01/24 at 15:13:14.552
