   * xtb version 6.5.1 (fef0646) compiled by 'conda@b96dff2e9fd6' on 2023-01-04
          program call               : xtb init.xyz --opt -c 1 -u 0 -P 16

   ID    Z sym.   atoms
    1    7 N      1
    2    6 C      2-9
    3    1 H      10-27

          :  Hamiltonian                  GFN2-xTB          :
 * total energy  :   -28.8199673 Eh     change       -0.8093437E-10 Eh
 * total energy  :   -28.8214537 Eh     change       -0.1486382E-02 Eh
 * total energy  :   -28.8217849 Eh     change       -0.3311830E-03 Eh
 * total energy  :   -28.8218883 Eh     change       -0.1033833E-03 Eh
 * total energy  :   -28.8219462 Eh     change       -0.5794877E-04 Eh
 * total energy  :   -28.8219758 Eh     change       -0.2956855E-04 Eh
 * total energy  :   -28.8220084 Eh     change       -0.3258411E-04 Eh
 * total energy  :   -28.8220371 Eh     change       -0.2870550E-04 Eh
 * total energy  :   -28.8220698 Eh     change       -0.3266857E-04 Eh
 * total energy  :   -28.8220974 Eh     change       -0.2766384E-04 Eh
 * total energy  :   -28.8221158 Eh     change       -0.1836589E-04 Eh
 * total energy  :   -28.8221276 Eh     change       -0.1177839E-04 Eh
 * total energy  :   -28.8221347 Eh     change       -0.7167835E-05 Eh
 * total energy  :   -28.8221381 Eh     change       -0.3335726E-05 Eh
   *** GEOMETRY OPTIMIZATION CONVERGED AFTER 14 ITERATIONS ***

 final structure:
================
27
 xtb: 6.5.1 (fef0646)
N            0.83506123772021       -0.30917661926768       -1.77289651393420
C            2.32918235917700       -0.27605083995895       -1.89926382411820
C            2.88919720810393        0.93615235751657       -1.17162953777272
C            4.42818784370379        0.97072757513217       -1.18465780716279
C            4.92267951870924        2.05572214386083       -0.22334494090830
C            6.44755252662108        2.10213778924842       -0.19365608015580
C            7.00037782767115        2.35937603359545       -1.59066733402411
C            6.51367585212104        1.28340803127795       -2.55432499996033
C            4.98703131137138        1.23423868199978       -2.58440062074314
H            0.43226402296708       -1.12129941376464       -2.25682442104901
H            0.43600055060301        0.54988473021370       -2.17419442532288
H            0.57263628850612       -0.34882280927030       -0.77887080340354
H            2.57987574074864       -0.24221338835732       -2.95923260316090
H            2.73118974507811       -1.19537197148030       -1.47149046621565
H            2.55875771624612        0.91638768212872       -0.13026430951174
H            2.51724353083471        1.85383721172432       -1.63163859259742
H            4.80120999185468        0.00308802883574       -0.83330723347877
H            4.54242312682361        1.86250971461835        0.78197258323004
H            4.53946283669837        3.02545489535702       -0.54776507445819
H            6.83290613707200        1.15195905634405        0.18164852491406
H            6.77377517882804        2.88748069426044        0.48853902709596
H            8.08996456808831        2.36564887671126       -1.56347038499233
H            6.66879839865744        3.33936584200529       -1.93964519000682
H            6.89978022619232        0.31174360818424       -2.23929460699910
H            6.89001085984763        1.48248048436424       -3.55829645085974
H            4.67350627323245        0.45253350068038       -3.27979744673022
H            4.60570912252270        2.18997810404040       -2.95052646767428

          :  Hamiltonian                  GFN2-xTB          :
         :: total energy             -28.822138067584 Eh    ::
         :: gradient norm              0.000275058266 Eh/a0 ::
         :: HOMO-LUMO gap              6.624700035744 eV    ::
         :: SCC energy               -29.237131652641 Eh    ::
         :: -> dispersion             -0.017793892532 Eh    ::
         :: repulsion energy           0.414936778132 Eh    ::

    * Orbital Energies and Occupations

         #    Occupation            Energy/Eh            Energy/eV
      -------------------------------------------------------------
         1        2.0000           -0.8954803             -24.3673
       ...           ...                  ...                  ...
        15        2.0000           -0.6280038             -17.0889
        16        2.0000           -0.6209177             -16.8960
        17        2.0000           -0.6004821             -16.3399
        18        2.0000           -0.5956065             -16.2073
        19        2.0000           -0.5892264             -16.0337
        20        2.0000           -0.5684852             -15.4693
        21        2.0000           -0.5669181             -15.4266
        22        2.0000           -0.5634020             -15.3309
        23        2.0000           -0.5451168             -14.8334
        24        2.0000           -0.5345110             -14.5448
        25        2.0000           -0.5136180             -13.9763
        26        2.0000           -0.5127952             -13.9539
        27        2.0000           -0.5094157             -13.8619 (HOMO)
        28                         -0.2659625              -7.2372 (LUMO)
        29                         -0.1632939              -4.4435
        30                         -0.1035955              -2.8190
        31                         -0.1026313              -2.7927
        32                         -0.0581467              -1.5823
        33                         -0.0520238              -1.4156
        34                         -0.0283741              -0.7721
        35                         -0.0270868              -0.7371
        36                         -0.0021837              -0.0594
        37                          0.0097115               0.2643
        38                          0.0173296               0.4716
       ...                                ...                  ...
        54                          0.2157241               5.8702
      -------------------------------------------------------------
                  HL-Gap            0.2434532 Eh            6.6247 eV

     #   Z          covCN         q      C6AA      α(0)
     1   7 N        3.483    -0.128    23.774     7.242
     2   6 C        3.730    -0.032    21.250     6.581
     3   6 C        3.805    -0.086    22.128     6.697
     4   6 C        3.855    -0.021    20.905     6.503
     5   6 C        3.809    -0.064    21.715     6.633
     6   6 C        3.806    -0.060    21.655     6.625
     7   6 C        3.806    -0.062    21.695     6.631
     8   6 C        3.806    -0.060    21.641     6.622
     9   6 C        3.807    -0.066    21.763     6.641
    10   1 H        0.859     0.269     0.814     1.414
    11   1 H        0.859     0.272     0.804     1.404
    12   1 H        0.859     0.271     0.805     1.406
    13   1 H        0.925     0.107     1.725     2.054
    14   1 H        0.924     0.105     1.737     2.061
    15   1 H        0.924     0.058     2.227     2.334
    16   1 H        0.924     0.061     2.192     2.315
    17   1 H        0.924     0.044     2.396     2.421
    18   1 H        0.924     0.034     2.533     2.489
    19   1 H        0.924     0.043     2.415     2.430
    20   1 H        0.924     0.040     2.452     2.449
    21   1 H        0.924     0.045     2.380     2.413
    22   1 H        0.925     0.045     2.386     2.416
    23   1 H        0.924     0.041     2.440     2.443
    24   1 H        0.924     0.039     2.465     2.455
    25   1 H        0.924     0.043     2.408     2.427
    26   1 H        0.924     0.022     2.702     2.571
    27   1 H        0.924     0.042     2.421     2.433

Wiberg/Mayer (AO) data.
largest (>0.10) Wiberg bond orders for each atom

     #   Z sym  total        # sym  WBO       # sym  WBO       # sym  WBO
 ---------------------------------------------------------------------------
     1   7 N    3.674 --     2 C    0.917    10 H    0.913    11 H    0.910
                            12 H    0.910
     2   6 C    3.882 --     3 C    1.008    14 H    0.967    13 H    0.964
                             1 N    0.917
     3   6 C    3.977 --     2 C    1.008     4 C    0.979    16 H    0.972
                            15 H    0.970
     4   6 C    3.986 --     9 C    0.998     5 C    0.994     3 C    0.979
                            17 H    0.966
     5   6 C    3.995 --     6 C    1.007     4 C    0.994    18 H    0.976
                            19 H    0.976
     6   6 C    3.995 --     7 C    1.010     5 C    1.007    20 H    0.977
                            21 H    0.976
     7   6 C    3.996 --     8 C    1.010     6 C    1.010    23 H    0.977
                            22 H    0.976
     8   6 C    3.996 --     7 C    1.010     9 C    1.006    24 H    0.977
                            25 H    0.976
     9   6 C    3.996 --     8 C    1.006     4 C    0.998    27 H    0.976
                            26 H    0.975
    10   1 H    0.927 --     1 N    0.913
    11   1 H    0.926 --     1 N    0.910
    12   1 H    0.926 --     1 N    0.910
    13   1 H    0.989 --     2 C    0.964
    14   1 H    0.989 --     2 C    0.967
    15   1 H    0.996 --     3 C    0.970
    16   1 H    0.996 --     3 C    0.972
    17   1 H    0.998 --     4 C    0.966
    18   1 H    0.999 --     5 C    0.976
    19   1 H    0.998 --     5 C    0.976
    20   1 H    0.998 --     6 C    0.977
    21   1 H    0.997 --     6 C    0.976
    22   1 H    0.998 --     7 C    0.976
    23   1 H    0.998 --     7 C    0.977
    24   1 H    0.998 --     8 C    0.977
    25   1 H    0.998 --     8 C    0.976
    26   1 H    1.000 --     9 C    0.975
    27   1 H    0.998 --     9 C    0.976
 ---------------------------------------------------------------------------

molecular dipole:
                 x           y           z       tot (Debye)
 q only:        2.846      -0.113      -3.239
   full:        2.467      -0.222      -3.258      10.403

           -------------------------------------------------
          | TOTAL ENERGY              -28.822138067584 Eh   |
          | GRADIENT NORM               0.000275058266 Eh/α |
          | HOMO-LUMO GAP               6.624700035744 eV   |
           -------------------------------------------------

 * finished run on 2023/01/23 at 14:11:12.509
