   * xtb version 6.5.1 (fef0646) compiled by 'conda@b96dff2e9fd6' on 2023-01-04
          program call               : xtb init.xyz --opt -c 1 -u 0 -P 16 --alpb water

   ID    Z sym.   atoms
    1    7 N      1
    2    6 C      2-5
    3   53 I      6
    4    1 H      7-17

      * Solvation model:               ALPB
        Solvent                        water
        Solvent mass                       1.8000E+01 g/mol
          :  Hamiltonian                  GFN2-xTB          :
 * total energy  :   -20.5796143 Eh     change       -0.5926282E-10 Eh
 * total energy  :   -20.5818851 Eh     change       -0.2270815E-02 Eh
 * total energy  :   -20.5821679 Eh     change       -0.2827693E-03 Eh
 * total energy  :   -20.5822257 Eh     change       -0.5777877E-04 Eh
 * total energy  :   -20.5822282 Eh     change       -0.2563065E-05 Eh
   *** GEOMETRY OPTIMIZATION CONVERGED AFTER 5 ITERATIONS ***

 final structure:
================
17
 xtb: 6.5.1 (fef0646)
N            0.93526985429947        0.08737376098243       -0.07229571060631
C            2.41734800901400        0.07286217291219       -0.06677951013593
C            2.94034419066087       -1.24553295862587        0.49637174289132
C            4.47149490708453       -1.25335235977158        0.49922635558425
C            4.98946737085601       -2.56413426621596        1.06256373862678
I            7.18613987654159       -2.63896282847137        1.09059704776508
H            0.58266196220350        0.97520624682593       -0.44894557349301
H            0.57408854568447       -0.03001033297218        0.88206416049985
H            0.57326247467655       -0.68051630469573       -0.65049097840347
H            2.78138396589312        0.90130282554480        0.54070939782129
H            2.78068412563551        0.20676880986142       -1.08561524195336
H            2.58851465879823       -2.08218943800113       -0.10812970700700
H            2.58897813123068       -1.38671212190395        1.51905533933093
H            4.84774056295323       -0.42554129787346        1.10281291893274
H            4.84719750151739       -1.12173391800519       -0.51700603292152
H            4.67551696387042       -3.41405752814637        0.46230319086896
H            4.67874689908041       -2.71173046144397        2.09360886219943

          :  Hamiltonian                  GFN2-xTB          :
         :: total energy             -20.582228235155 Eh    ::
         :: gradient norm              0.000973762465 Eh/a0 ::
         :: HOMO-LUMO gap              4.628956592894 eV    ::
         :: SCC energy               -20.821929532395 Eh    ::
         :: -> dispersion             -0.009140271659 Eh    ::
         :: -> Gsolv                  -0.130660560992 Eh    ::
         :: repulsion energy           0.239726967689 Eh    ::

    * Orbital Energies and Occupations

         #    Occupation            Energy/Eh            Energy/eV
      -------------------------------------------------------------
         1        2.0000           -0.7332143             -19.9518
       ...           ...                  ...                  ...
         7        2.0000           -0.5934193             -16.1478
         8        2.0000           -0.5716429             -15.5552
         9        2.0000           -0.5538781             -15.0718
        10        2.0000           -0.5399882             -14.6938
        11        2.0000           -0.5080616             -13.8251
        12        2.0000           -0.5065173             -13.7830
        13        2.0000           -0.4994039             -13.5895
        14        2.0000           -0.4690846             -12.7644
        15        2.0000           -0.4669214             -12.7056
        16        2.0000           -0.4582097             -12.4685
        17        2.0000           -0.4430217             -12.0552
        18        2.0000           -0.4052156             -11.0265
        19        2.0000           -0.4034577             -10.9786 (HOMO)
        20                         -0.2333467              -6.3497 (LUMO)
        21                         -0.0547938              -1.4910
        22                          0.0244179               0.6644
        23                          0.0298548               0.8124
        24                          0.0362031               0.9851
        25                          0.0496055               1.3498
        26                          0.0564175               1.5352
        27                          0.0730674               1.9883
        28                          0.0957022               2.6042
        29                          0.1007828               2.7424
        30                          0.1357573               3.6941
       ...                                ...                  ...
        40                          0.3390134               9.2250
      -------------------------------------------------------------
                  HL-Gap            0.1701110 Eh            4.6290 eV

     #   Z          covCN         q      C6AA      α(0)
     1   7 N        3.485    -0.162    24.484     7.349
     2   6 C        3.733    -0.039    21.362     6.597
     3   6 C        3.804    -0.088    22.180     6.705
     4   6 C        3.892    -0.073    21.833     6.643
     5   6 C        3.779    -0.007    20.733     6.487
     6  53 I        1.051    -0.224   388.721    34.035
     7   1 H        0.859     0.319     0.660     1.272
     8   1 H        0.859     0.311     0.683     1.294
     9   1 H        0.859     0.311     0.683     1.294
    10   1 H        0.925     0.113     1.671     2.022
    11   1 H        0.925     0.113     1.672     2.022
    12   1 H        0.924     0.076     2.021     2.223
    13   1 H        0.924     0.076     2.022     2.224
    14   1 H        0.924     0.063     2.166     2.301
    15   1 H        0.924     0.063     2.166     2.301
    16   1 H        0.931     0.075     2.036     2.231
    17   1 H        0.931     0.074     2.036     2.231

Wiberg/Mayer (AO) data.
largest (>0.10) Wiberg bond orders for each atom

     #   Z sym  total        # sym  WBO       # sym  WBO       # sym  WBO
 ---------------------------------------------------------------------------
     1   7 N    3.651 --     2 C    0.970     9 H    0.889     8 H    0.889
                             7 H    0.885
     2   6 C    3.924 --     3 C    1.009     1 N    0.970    11 H    0.965
                            10 H    0.965
     3   6 C    3.988 --     2 C    1.009     4 C    0.993    12 H    0.971
                            13 H    0.971
     4   6 C    3.988 --     5 C    1.020     3 C    0.993    14 H    0.974
                            15 H    0.974
     5   6 C    3.942 --     4 C    1.020    17 H    0.976    16 H    0.976
                             6 I    0.953
     6  53 I    1.001 --     5 C    0.953
     7   1 H    0.898 --     1 N    0.885
     8   1 H    0.904 --     1 N    0.889
     9   1 H    0.904 --     1 N    0.889
    10   1 H    0.987 --     2 C    0.965
    11   1 H    0.987 --     2 C    0.965
    12   1 H    0.994 --     3 C    0.971
    13   1 H    0.994 --     3 C    0.971
    14   1 H    0.996 --     4 C    0.974
    15   1 H    0.996 --     4 C    0.974
    16   1 H    0.994 --     5 C    0.976
    17   1 H    0.994 --     5 C    0.976
 ---------------------------------------------------------------------------

molecular dipole:
                 x           y           z       tot (Debye)
 q only:        0.749       0.362      -0.219
   full:        0.565       0.185      -0.143       1.553

           -------------------------------------------------
          | TOTAL ENERGY              -20.582228235155 Eh   |
          | GRADIENT NORM               0.000973762465 Eh/α |
          | HOMO-LUMO GAP               4.628956592894 eV   |
           -------------------------------------------------

 * finished run on 2023/01/24 at 16:41:29.024
