   * xtb version 6.5.1 (fef0646) compiled by 'conda@b96dff2e9fd6' on 2023-01-04
          program call               : xtb init.xyz --opt -c 1 -u 0 -P 16 --input xtb.inp

   ID    Z sym.   atoms
    1    7 N      1
    2    6 C      2-5
    3   53 I      6
    4    1 H      7-17

          :  Hamiltonian                  GFN2-xTB          :
 * total energy  :   -20.4596200 Eh     change       -0.6300382E-10 Eh
 * total energy  :   -20.4610054 Eh     change       -0.1385386E-02 Eh
 * total energy  :   -20.4611418 Eh     change       -0.1364556E-03 Eh
 * total energy  :   -20.4612267 Eh     change       -0.8492212E-04 Eh
 * total energy  :   -20.4612361 Eh     change       -0.9327558E-05 Eh
 * total energy  :   -20.4612387 Eh     change       -0.2586940E-05 Eh
 * total energy  :   -20.4612409 Eh     change       -0.2272977E-05 Eh
   *** GEOMETRY OPTIMIZATION CONVERGED AFTER 7 ITERATIONS ***

 final structure:
================
17
 xtb: 6.5.1 (fef0646)
N            0.92257684619883       -0.06360982579158        0.10043717307193
C            2.42012089947924       -0.06065942307617        0.06690526611313
C            2.92871756904210        0.12347742603918       -1.35578413729270
C            4.46224903808565        0.12557140191539       -1.37536092946484
C            4.99364830508402        0.30936685135835       -2.78741933727032
I            7.15979400805021        0.30958854110733       -2.79191836630563
H            0.57040948223654       -0.18749415275133        1.05837974699985
H            0.56034942578145       -0.82743172699943       -0.48626952676105
H            0.56193276629363        0.82527411863694       -0.27195974741579
H            2.77576361482747       -1.00726506965199        0.47656553977582
H            2.77737210596260        0.74944313074365        0.70445331013648
H            2.56728276807043        1.06933025899983       -1.76467611209721
H            2.56672069506745       -0.68668727146417       -1.99221167460489
H            4.83352441990757       -0.81672048769021       -0.96900238512759
H            4.83400945397771        0.93214888855876       -0.74122985889709
H            4.68006327034348        1.25996928424944       -3.21186701146045
H            4.67978533159164       -0.50070194418399       -3.44118194939965

          :  Hamiltonian                  GFN2-xTB          :
         :: total energy             -20.461240925598 Eh    ::
         :: gradient norm              0.000352401654 Eh/a0 ::
         :: HOMO-LUMO gap              4.440180489870 eV    ::
         :: SCC energy               -20.699613615479 Eh    ::
         :: -> dispersion             -0.009241713568 Eh    ::
         :: repulsion energy           0.238397365532 Eh    ::

    * Orbital Energies and Occupations

         #    Occupation            Energy/Eh            Energy/eV
      -------------------------------------------------------------
         1        2.0000           -0.9083318             -24.7170
       ...           ...                  ...                  ...
         7        2.0000           -0.7556275             -20.5617
         8        2.0000           -0.7409896             -20.1634
         9        2.0000           -0.7065178             -19.2253
        10        2.0000           -0.7040740             -19.1588
        11        2.0000           -0.6701255             -18.2350
        12        2.0000           -0.6576040             -17.8943
        13        2.0000           -0.6412624             -17.4496
        14        2.0000           -0.6217923             -16.9198
        15        2.0000           -0.6076810             -16.5358
        16        2.0000           -0.5809117             -15.8074
        17        2.0000           -0.5725858             -15.5809
        18        2.0000           -0.4947348             -13.4624
        19        2.0000           -0.4925526             -13.4030 (HOMO)
        20                         -0.3293790              -8.9629 (LUMO)
        21                         -0.2772939              -7.5456
        22                         -0.1732459              -4.7143
        23                         -0.1170783              -3.1859
        24                         -0.1149184              -3.1271
        25                         -0.0805993              -2.1932
        26                         -0.0707999              -1.9266
        27                         -0.0706946              -1.9237
        28                         -0.0646497              -1.7592
        29                         -0.0501061              -1.3635
        30                         -0.0283928              -0.7726
       ...                                ...                  ...
        40                          0.2646196               7.2007
      -------------------------------------------------------------
                  HL-Gap            0.1631736 Eh            4.4402 eV

     #   Z          covCN         q      C6AA      α(0)
     1   7 N        3.482    -0.127    23.751     7.238
     2   6 C        3.732    -0.034    21.276     6.584
     3   6 C        3.803    -0.082    22.057     6.686
     4   6 C        3.928    -0.067    21.713     6.622
     5   6 C        3.782    -0.013    20.832     6.502
     6  53 I        1.094    -0.111   380.172    33.659
     7   1 H        0.859     0.273     0.798     1.400
     8   1 H        0.859     0.274     0.797     1.398
     9   1 H        0.859     0.274     0.797     1.398
    10   1 H        0.924     0.111     1.688     2.032
    11   1 H        0.924     0.111     1.688     2.032
    12   1 H        0.924     0.065     2.144     2.290
    13   1 H        0.924     0.065     2.144     2.290
    14   1 H        0.924     0.066     2.135     2.285
    15   1 H        0.924     0.066     2.135     2.285
    16   1 H        0.932     0.065     2.136     2.285
    17   1 H        0.932     0.065     2.136     2.285

Wiberg/Mayer (AO) data.
largest (>0.10) Wiberg bond orders for each atom

     #   Z sym  total        # sym  WBO       # sym  WBO       # sym  WBO
 ---------------------------------------------------------------------------
     1   7 N    3.675 --     2 C    0.923     7 H    0.911     8 H    0.909
                             9 H    0.909
     2   6 C    3.884 --     3 C    1.009    10 H    0.966    11 H    0.966
                             1 N    0.923
     3   6 C    3.982 --     2 C    1.009     4 C    0.990    13 H    0.972
                            12 H    0.972
     4   6 C    3.988 --     5 C    1.021     3 C    0.990    14 H    0.975
                            15 H    0.975
     5   6 C    3.975 --     4 C    1.021     6 I    0.980    17 H    0.980
                            16 H    0.980
     6  53 I    1.014 --     5 C    0.980
     7   1 H    0.925 --     1 N    0.911
     8   1 H    0.925 --     1 N    0.909
     9   1 H    0.925 --     1 N    0.909
    10   1 H    0.988 --     2 C    0.966
    11   1 H    0.988 --     2 C    0.966
    12   1 H    0.996 --     3 C    0.972
    13   1 H    0.996 --     3 C    0.972
    14   1 H    0.996 --     4 C    0.975
    15   1 H    0.996 --     4 C    0.975
    16   1 H    0.996 --     5 C    0.980
    17   1 H    0.996 --     5 C    0.980
 ---------------------------------------------------------------------------

molecular dipole:
                 x           y           z       tot (Debye)
 q only:        1.998      -0.086      -0.080
   full:        1.239      -0.082      -0.109       3.167

           -------------------------------------------------
          | TOTAL ENERGY              -20.461240925598 Eh   |
          | GRADIENT NORM               0.000352401654 Eh/α |
          | HOMO-LUMO GAP               4.440180489870 eV   |
           -------------------------------------------------

 * finished run on 2023/01/23 at 20:46:06.382
