   * xtb version 6.5.1 (fef0646) compiled by 'conda@b96dff2e9fd6' on 2023-01-04
          program call               : xtb init.xyz --opt -c 0 -u 0 -P 16 --alpb water

   ID    Z sym.   atoms
    1    7 N      1
    2    6 C      2-10
    3   17 Cl     11
    4    1 H      12-23

      * Solvation model:               ALPB
        Solvent                        water
        Solvent mass                       1.8000E+01 g/mol
          :  Hamiltonian                  GFN2-xTB          :
 * total energy  :   -32.8504673 Eh     change       -0.5013163E-09 Eh
 * total energy  :   -32.8552718 Eh     change       -0.4804520E-02 Eh
 * total energy  :   -32.8563004 Eh     change       -0.1028525E-02 Eh
 * total energy  :   -32.8566837 Eh     change       -0.3833248E-03 Eh
 * total energy  :   -32.8569129 Eh     change       -0.2292191E-03 Eh
 * total energy  :   -32.8571601 Eh     change       -0.2471608E-03 Eh
 * total energy  :   -32.8574435 Eh     change       -0.2834213E-03 Eh
 * total energy  :   -32.8578521 Eh     change       -0.4085952E-03 Eh
 * total energy  :   -32.8581280 Eh     change       -0.2759631E-03 Eh
 * total energy  :   -32.8583047 Eh     change       -0.1766986E-03 Eh
 * total energy  :   -32.8586526 Eh     change       -0.1322307E-03 Eh
 * total energy  :   -32.8588196 Eh     change       -0.1670356E-03 Eh
 * total energy  :   -32.8588941 Eh     change       -0.7444142E-04 Eh
 * total energy  :   -32.8589250 Eh     change       -0.3091888E-04 Eh
 * total energy  :   -32.8589728 Eh     change       -0.4782564E-04 Eh
 * total energy  :   -32.8589854 Eh     change       -0.1257101E-04 Eh
 * total energy  :   -32.8590010 Eh     change       -0.1561299E-04 Eh
 * total energy  :   -32.8590079 Eh     change       -0.6950762E-05 Eh
 * total energy  :   -32.8590124 Eh     change       -0.4415700E-05 Eh
   *** GEOMETRY OPTIMIZATION CONVERGED AFTER 20 ITERATIONS ***

 final structure:
================
23
 xtb: 6.5.1 (fef0646)
N            1.96750897699790       -0.91739330486256       -0.80588790708913
C            2.69140681757144        0.17026767272329       -0.10996732049411
C            3.13829138776286       -0.29213253705222        1.23910261492879
C            4.34107439694254       -0.03999543975543        1.74918123525246
C            4.83039859613400       -0.43271805921480        3.06313256781800
C            4.06766428741652       -1.16997941144470        3.97126807387284
C            4.58256078185610       -1.51772634723295        5.20523246641413
C            5.86724258755165       -1.13912575081725        5.56274593048820
C            6.63672428509491       -0.40844346171621        4.67248735934051
C            6.12370139185226       -0.06082710495072        3.43753429789636
Cl          -0.25379536651692       -1.99118033672025        1.00869814817146
H            1.56340940070616       -0.59618469145393       -1.68818710322573
H            1.18364016842409       -1.26748294906713       -0.19701712662076
H            2.58581938949875       -1.71477754958309       -0.97616003487299
H            2.00149557809148        1.00770584978688        0.01962342222877
H            3.54105839018986        0.49674703694329       -0.71066828498584
H            2.38495514320403       -0.83805850635065        1.78810954892057
H            5.05362703660932        0.52115543361457        1.15735652932512
H            3.06477001948884       -1.47528974880939        3.71373575633418
H            3.97756874798289       -2.08847473157458        5.89542798706784
H            6.26380845319074       -1.41243093009709        6.52918468611608
H            7.63863999373363       -0.11012439586644        4.94384192834262
H            6.73080953621652        0.50953926350080        2.74946522477046

          :  Hamiltonian                  GFN2-xTB          :
         :: total energy             -32.859012356734 Eh    ::
         :: gradient norm              0.000587394956 Eh/a0 ::
         :: HOMO-LUMO gap              3.528492157418 eV    ::
         :: SCC energy               -33.367462112545 Eh    ::
         :: -> dispersion             -0.017831928984 Eh    ::
         :: -> Gsolv                  -0.075380532452 Eh    ::
         :: repulsion energy           0.508493950897 Eh    ::

    * Orbital Energies and Occupations

         #    Occupation            Energy/Eh            Energy/eV
      -------------------------------------------------------------
         1        2.0000           -1.0071718             -27.4065
       ...           ...                  ...                  ...
        18        2.0000           -0.4775027             -12.9935
        19        2.0000           -0.4734432             -12.8830
        20        2.0000           -0.4679746             -12.7342
        21        2.0000           -0.4623870             -12.5822
        22        2.0000           -0.4379098             -11.9161
        23        2.0000           -0.4287219             -11.6661
        24        2.0000           -0.4198987             -11.4260
        25        2.0000           -0.4138043             -11.2602
        26        2.0000           -0.4036540             -10.9840
        27        2.0000           -0.4010184             -10.9123
        28        2.0000           -0.4005719             -10.9001
        29        2.0000           -0.4000411             -10.8857
        30        2.0000           -0.3782315             -10.2922 (HOMO)
        31                         -0.2485618              -6.7637 (LUMO)
        32                         -0.2176435              -5.9224
        33                         -0.1700428              -4.6271
        34                         -0.0740669              -2.0155
        35                         -0.0172284              -0.4688
        36                          0.0755381               2.0555
        37                          0.0927796               2.5247
        38                          0.1027731               2.7966
        39                          0.1143733               3.1123
        40                          0.1167694               3.1775
        41                          0.1180824               3.2132
       ...                                ...                  ...
        61                          0.6941858              18.8898
      -------------------------------------------------------------
                  HL-Gap            0.1296697 Eh            3.5285 eV

     #   Z          covCN         q      C6AA      α(0)
     1   7 N        3.485    -0.170    24.656     7.375
     2   6 C        3.736    -0.027    21.150     6.563
     3   6 C        2.891    -0.043    29.076     8.841
     4   6 C        2.900    -0.048    29.180     8.857
     5   6 C        2.970     0.013    27.715     8.635
     6   6 C        2.923    -0.037    28.916     8.818
     7   6 C        2.918    -0.034    28.854     8.809
     8   6 C        2.920    -0.036    28.903     8.816
     9   6 C        2.917    -0.036    28.897     8.815
    10   6 C        2.929    -0.041    29.011     8.833
    11  17 Cl       0.046    -0.948   124.910    17.009
    12   1 H        0.859     0.306     0.697     1.308
    13   1 H        0.903     0.295     0.725     1.332
    14   1 H        0.859     0.300     0.714     1.324
    15   1 H        0.924     0.114     1.666     2.019
    16   1 H        0.924     0.113     1.669     2.020
    17   1 H        0.926     0.057     2.240     2.341
    18   1 H        0.925     0.057     2.231     2.336
    19   1 H        0.926     0.032     2.557     2.500
    20   1 H        0.926     0.025     2.662     2.552
    21   1 H        0.926     0.030     2.585     2.514
    22   1 H        0.926     0.035     2.515     2.480
    23   1 H        0.926     0.044     2.394     2.420

Wiberg/Mayer (AO) data.
largest (>0.10) Wiberg bond orders for each atom

     #   Z sym  total        # sym  WBO       # sym  WBO       # sym  WBO
 ---------------------------------------------------------------------------
     1   7 N    3.642 --     2 C    0.964    14 H    0.896    12 H    0.893
                            13 H    0.832
     2   6 C    3.932 --     3 C    1.029     1 N    0.964    16 H    0.961
                            15 H    0.947
     3   6 C    3.988 --     4 C    1.850     2 C    1.029    17 H    0.956
     4   6 C    3.989 --     3 C    1.850     5 C    1.096    18 H    0.960
     5   6 C    3.989 --    10 C    1.375     6 C    1.371     4 C    1.096
                             8 C    0.101
     6   6 C    3.992 --     7 C    1.462     5 C    1.371    19 H    0.966
                             9 C    0.106
     7   6 C    3.993 --     6 C    1.462     8 C    1.428    20 H    0.971
                            10 C    0.105
     8   6 C    3.990 --     9 C    1.433     7 C    1.428    21 H    0.972
                             5 C    0.101
     9   6 C    3.992 --    10 C    1.456     8 C    1.433    22 H    0.971
                             6 C    0.106
    10   6 C    3.988 --     9 C    1.456     5 C    1.375    23 H    0.968
                             7 C    0.105
    11  17 Cl   0.101
    12   1 H    0.906 --     1 N    0.893
    13   1 H    0.913 --     1 N    0.832
    14   1 H    0.910 --     1 N    0.896
    15   1 H    0.984 --     2 C    0.947
    16   1 H    0.987 --     2 C    0.961
    17   1 H    0.997 --     3 C    0.956
    18   1 H    0.996 --     4 C    0.960
    19   1 H    0.999 --     6 C    0.966
    20   1 H    0.999 --     7 C    0.971
    21   1 H    0.999 --     8 C    0.972
    22   1 H    0.998 --     9 C    0.971
    23   1 H    0.998 --    10 C    0.968
 ---------------------------------------------------------------------------

molecular dipole:
                 x           y           z       tot (Debye)
 q only:        4.065       2.195      -3.343
   full:        3.418       1.791      -2.921      12.301

           -------------------------------------------------
          | TOTAL ENERGY              -32.859012356734 Eh   |
          | GRADIENT NORM               0.000587394956 Eh/α |
          | HOMO-LUMO GAP               3.528492157418 eV   |
           -------------------------------------------------

 * finished run on 2023/01/24 at 14:55:51.154
