   * xtb version 6.5.1 (fef0646) compiled by 'conda@b96dff2e9fd6' on 2023-01-04
          program call               : xtb init.xyz --opt -c 1 -u 0 -P 16

   ID    Z sym.   atoms
    1    7 N      1, 10, 11
    2    6 C      2-9, 12-17
    3    1 H      18-33

          :  Hamiltonian                  GFN2-xTB          :
 * total energy  :   -46.3911568 Eh     change       -0.3922914E-08 Eh
 * total energy  :   -46.3970552 Eh     change       -0.5898349E-02 Eh
 * total energy  :   -46.3988937 Eh     change       -0.1838520E-02 Eh
 * total energy  :   -46.3995980 Eh     change       -0.7043191E-03 Eh
 * total energy  :   -46.4002946 Eh     change       -0.6966178E-03 Eh
 * total energy  :   -46.4008537 Eh     change       -0.5590392E-03 Eh
 * total energy  :   -46.4014265 Eh     change       -0.5727948E-03 Eh
 * total energy  :   -46.4019338 Eh     change       -0.5073311E-03 Eh
 * total energy  :   -46.4023179 Eh     change       -0.3840962E-03 Eh
 * total energy  :   -46.4026737 Eh     change       -0.3558250E-03 Eh
 * total energy  :   -46.4055263 Eh     change       -0.4137762E-05 Eh
 * total energy  :   -46.4055565 Eh     change       -0.3021394E-04 Eh
 * total energy  :   -46.4055674 Eh     change       -0.1090140E-04 Eh
 * total energy  :   -46.4055700 Eh     change       -0.2568150E-05 Eh
 * total energy  :   -46.4055765 Eh     change       -0.6507668E-05 Eh
 * total energy  :   -46.4055833 Eh     change       -0.6817310E-05 Eh
 * total energy  :   -46.4055887 Eh     change       -0.5367365E-05 Eh
 * total energy  :   -46.4055949 Eh     change       -0.6166866E-05 Eh
 * total energy  :   -46.4055980 Eh     change       -0.3116178E-05 Eh
   *** GEOMETRY OPTIMIZATION CONVERGED AFTER 45 ITERATIONS ***

 final structure:
================
33
 xtb: 6.5.1 (fef0646)
N            3.08246989450423        1.37567557834845       -1.98668545012997
C            2.51211710214859        2.03685502625633       -0.77658319707957
C            3.11421980044384        1.34883603071779        0.45331000877590
C            4.61466194716478        1.37938334605125        0.32723377103369
C            5.34987907131857        2.47024564198254        0.78398200415116
C            6.70642641788961        2.54853499046146        0.56946477469239
C            5.28526615480413        0.35558974373309       -0.35742676117388
C            6.64972048150989        0.40965612983135       -0.55488130475972
C            7.38538969021271        1.51982551583360       -0.11235945857102
N            8.73785676268397        1.47405338211320       -0.15367313161104
N            9.45495726246762        2.42879141953093       -0.53965475199217
C           10.81646983892908        2.33166644880865       -0.35303607789212
C           11.45000320132632        1.27652338143959        0.32073690361133
C           12.81932813937014        1.28572888880632        0.46850973018324
C           13.57001738860615        2.33636434730709       -0.04563548647874
C           12.94957048725299        3.38406445713043       -0.71169579682992
C           11.57890567971833        3.38731254875503       -0.86841351881924
H            3.06388018579626        1.97600710603349       -2.81553064608748
H            2.58904122171239        0.50125816859258       -2.19522622418132
H            4.08009688777439        1.13452735129083       -1.70848127699914
H            1.42474625523567        1.97176436343470       -0.79037875602219
H            2.80744059813365        3.08659353481139       -0.78867961461267
H            2.75287949163128        0.32162895164544        0.52192587222847
H            2.79141663073707        1.87878418001648        1.34757939821661
H            4.84759757359696        3.26523426785408        1.31468997925449
H            7.27787871698616        3.38623228299295        0.93697910537973
H            4.75671725645271       -0.54695041085523       -0.64178679124731
H            7.16477190070527       -0.39235094391602       -1.05919091672820
H           10.84669460005188        0.47138928875082        0.71367897740734
H           13.31163616831440        0.47559021279911        0.98598495528190
H           14.64263200749627        2.33697707867057        0.07549854359325
H           13.53994744502337        4.19681022818211       -1.10586757245141
H           11.07245373999994        4.19040746259380       -1.38059729014051

          :  Hamiltonian                  GFN2-xTB          :
         :: total energy             -46.405597972141 Eh    ::
         :: gradient norm              0.000691090566 Eh/a0 ::
         :: HOMO-LUMO gap              0.865602405179 eV    ::
         :: SCC energy               -47.186173104811 Eh    ::
         :: -> dispersion             -0.029640921731 Eh    ::
         :: repulsion energy           0.780783638519 Eh    ::

    * Orbital Energies and Occupations

         #    Occupation            Energy/Eh            Energy/eV
      -------------------------------------------------------------
         1        2.0000           -0.8720914             -23.7308
       ...           ...                  ...                  ...
        31        2.0000           -0.5716706             -15.5559
        32        2.0000           -0.5690152             -15.4837
        33        2.0000           -0.5632178             -15.3259
        34        2.0000           -0.5598589             -15.2345
        35        2.0000           -0.5524593             -15.0332
        36        2.0000           -0.5371796             -14.6174
        37        2.0000           -0.5255704             -14.3015
        38        2.0000           -0.5238327             -14.2542
        39        2.0000           -0.5134690             -13.9722
        40        2.0000           -0.5069068             -13.7936
        41        2.0000           -0.4942353             -13.4488
        42        2.0000           -0.4886254             -13.2962
        43        2.0000           -0.4325459             -11.7702 (HOMO)
        44        0.0000           -0.4007356             -10.9046 (LUMO)
        45                         -0.3454407              -9.3999
        46                         -0.3296109              -8.9692
        47                         -0.3103930              -8.4462
        48                         -0.2879873              -7.8365
        49                         -0.2335422              -6.3550
        50                         -0.2124434              -5.7809
        51                         -0.1732907              -4.7155
        52                         -0.1325295              -3.6063
        53                         -0.0790491              -2.1510
        54                         -0.0710727              -1.9340
       ...                                ...                  ...
        84                          0.5786148              15.7449
      -------------------------------------------------------------
                  HL-Gap            0.0318103 Eh            0.8656 eV

     #   Z          covCN         q      C6AA      α(0)
     1   7 N        3.482    -0.147    24.163     7.301
     2   6 C        3.735    -0.029    21.174     6.567
     3   6 C        3.809    -0.090    22.204     6.708
     4   6 C        2.971    -0.022    28.540     8.763
     5   6 C        2.918    -0.039    28.962     8.825
     6   6 C        2.920    -0.038    28.952     8.824
     7   6 C        2.918    -0.068    29.694     8.936
     8   6 C        2.921    -0.045    29.127     8.850
     9   6 C        2.921     0.078    26.260     8.404
    10   7 N        1.946    -0.093    23.795     7.233
    11   7 N        1.929    -0.103    24.019     7.267
    12   6 C        2.942     0.074    26.355     8.420
    13   6 C        2.917    -0.026    28.653     8.778
    14   6 C        2.916    -0.022    28.553     8.762
    15   6 C        2.921    -0.012    28.303     8.724
    16   6 C        2.916    -0.022    28.565     8.764
    17   6 C        2.927    -0.024    28.605     8.771
    18   1 H        0.859     0.257     0.858     1.451
    19   1 H        0.859     0.259     0.849     1.444
    20   1 H        0.855     0.280     0.776     1.381
    21   1 H        0.925     0.099     1.797     2.096
    22   1 H        0.924     0.101     1.775     2.083
    23   1 H        0.924     0.067     2.119     2.276
    24   1 H        0.925     0.090     1.883     2.146
    25   1 H        0.926     0.047     2.362     2.403
    26   1 H        0.926     0.056     2.250     2.346
    27   1 H        0.925     0.031     2.567     2.506
    28   1 H        0.926     0.053     2.283     2.363
    29   1 H        0.926     0.059     2.214     2.327
    30   1 H        0.926     0.054     2.272     2.357
    31   1 H        0.926     0.058     2.219     2.330
    32   1 H        0.926     0.056     2.249     2.345
    33   1 H        0.926     0.062     2.170     2.303

Wiberg/Mayer (AO) data.
largest (>0.10) Wiberg bond orders for each atom

     #   Z sym  total        # sym  WBO       # sym  WBO       # sym  WBO
 ---------------------------------------------------------------------------
     1   7 N    3.661 --     2 C    0.936    18 H    0.920    19 H    0.918
                            20 H    0.819
     2   6 C    3.897 --     3 C    0.991    22 H    0.969    21 H    0.969
                             1 N    0.936
     3   6 C    3.979 --     4 C    1.006     2 C    0.991    23 H    0.970
                            24 H    0.962
     4   6 C    3.972 --     5 C    1.384     7 C    1.346     3 C    1.006
     5   6 C    3.990 --     6 C    1.487     4 C    1.384    25 H    0.966
     6   6 C    3.981 --     5 C    1.487     9 C    1.283    26 H    0.968
     7   6 C    3.988 --     8 C    1.465     4 C    1.346    27 H    0.959
     8   6 C    3.978 --     7 C    1.465     9 C    1.309    28 H    0.968
     9   6 C    3.974 --     8 C    1.309     6 C    1.283    10 N    1.211
    10   7 N    3.248 --    11 N    1.671     9 C    1.211
    11   7 N    3.076 --    10 N    1.671    12 C    1.164
    12   6 C    3.975 --    17 C    1.326    13 C    1.318    11 N    1.164
    13   6 C    3.985 --    14 C    1.484    12 C    1.318    29 H    0.966
    14   6 C    3.990 --    13 C    1.484    15 C    1.409    30 H    0.968
    15   6 C    3.973 --    16 C    1.423    14 C    1.409    31 H    0.969
    16   6 C    3.990 --    17 C    1.470    15 C    1.423    32 H    0.968
    17   6 C    3.979 --    16 C    1.470    12 C    1.326    33 H    0.967
    18   1 H    0.934 --     1 N    0.920
    19   1 H    0.933 --     1 N    0.918
    20   1 H    0.921 --     1 N    0.819
    21   1 H    0.989 --     2 C    0.969
    22   1 H    0.990 --     2 C    0.969
    23   1 H    0.995 --     3 C    0.970
    24   1 H    0.991 --     3 C    0.962
    25   1 H    0.997 --     5 C    0.966
    26   1 H    0.997 --     6 C    0.968
    27   1 H    0.998 --     7 C    0.959
    28   1 H    0.997 --     8 C    0.968
    29   1 H    0.997 --    13 C    0.966
    30   1 H    0.997 --    14 C    0.968
    31   1 H    0.997 --    15 C    0.969
    32   1 H    0.996 --    16 C    0.968
    33   1 H    0.996 --    17 C    0.967
 ---------------------------------------------------------------------------

molecular dipole:
                 x           y           z       tot (Debye)
 q only:        8.545       3.116      -2.769
   full:        8.555       2.988      -2.868      24.159

           -------------------------------------------------
          | TOTAL ENERGY              -46.405597972141 Eh   |
          | GRADIENT NORM               0.000691090566 Eh/α |
          | HOMO-LUMO GAP               0.865602405179 eV   |
           -------------------------------------------------

 * finished run on 2023/01/23 at 13:49:44.819
