   * xtb version 6.5.1 (fef0646) compiled by 'conda@b96dff2e9fd6' on 2023-01-04
          program call               : xtb init.xyz --opt -c 0 -u 0 -P 16 --alpb water

   ID    Z sym.   atoms
    1    7 N      1
    2    6 C      2-9
    3   17 Cl     10
    4    1 H      11-26

      * Solvation model:               ALPB
        Solvent                        water
        Solvent mass                       1.8000E+01 g/mol
          :  Hamiltonian                  GFN2-xTB          :
 * total energy  :   -32.7832581 Eh     change       -0.2473470E-09 Eh
 * total energy  :   -32.7884364 Eh     change       -0.5178295E-02 Eh
 * total energy  :   -32.7898004 Eh     change       -0.1364022E-02 Eh
 * total energy  :   -32.7902380 Eh     change       -0.4375847E-03 Eh
 * total energy  :   -32.7904780 Eh     change       -0.2400243E-03 Eh
 * total energy  :   -32.7907852 Eh     change       -0.3072014E-03 Eh
 * total energy  :   -32.7913049 Eh     change       -0.5197240E-03 Eh
 * total energy  :   -32.7919361 Eh     change       -0.6311611E-03 Eh
 * total energy  :   -32.7926528 Eh     change       -0.7167396E-03 Eh
 * total energy  :   -32.7933889 Eh     change       -0.7360581E-03 Eh
 * total energy  :   -32.7963932 Eh     change       -0.4326092E-04 Eh
 * total energy  :   -32.7964241 Eh     change       -0.3097067E-04 Eh
 * total energy  :   -32.7964586 Eh     change       -0.3447788E-04 Eh
 * total energy  :   -32.7964699 Eh     change       -0.1123688E-04 Eh
 * total energy  :   -32.7964852 Eh     change       -0.1534785E-04 Eh
 * total energy  :   -32.7964955 Eh     change       -0.1034726E-04 Eh
 * total energy  :   -32.7965033 Eh     change       -0.7785858E-05 Eh
 * total energy  :   -32.7965086 Eh     change       -0.5243777E-05 Eh
 * total energy  :   -32.7965128 Eh     change       -0.4255347E-05 Eh
   *** GEOMETRY OPTIMIZATION CONVERGED AFTER 37 ITERATIONS ***

 final structure:
================
26
 xtb: 6.5.1 (fef0646)
N            1.08727521985865        1.60368973554754       -0.33781115970982
C            2.56180531645084        1.68716712212940       -0.36362850284187
C            3.11676226033427        1.35932511330428        1.02138659868847
C            4.61929742380589        1.28163500400474        1.02480010995508
C            5.36629755518536        2.16254616501131        1.67651456286792
C            6.86244329583069        2.12869824577422        1.73785435513023
C            7.45425301445016        1.15962783191725        0.71785264025228
C            6.65569736089391       -0.13911409989472        0.71853755195337
C            5.22863011859737        0.14148871739368        0.25573025260505
Cl           0.34861803931576       -1.25994889423173        0.45737759532372
H            0.68053479621752        1.81153845911655       -1.25251745521567
H            0.69953026413381        2.23663777577621        0.36632803621259
H            0.80148334753959        0.62666955095504       -0.07149717013169
H            2.87210734712221        2.68847756909424       -0.66440237426239
H            2.93228366897030        0.96029480427470       -1.08466300782782
H            2.70466409329380        0.39470245023198        1.32920623429281
H            2.79489591565677        2.11549645843046        1.73801573545830
H            4.90024218842020        2.96071047263366        2.23894409632378
H            7.16062348728941        1.82898441400690        2.74875554211661
H            7.25775327438548        3.13466196857207        1.57541387849381
H            8.50173334017401        0.96373519688119        0.95371358459373
H            7.41043737586338        1.60392534863326       -0.27818275405558
H            6.63793274569050       -0.55316166925228        1.72912027782758
H            7.12321890887402       -0.87523450734730        0.06172028889207
H            4.60903725427118       -0.75074495325638        0.37676618022604
H            5.24418238737439        0.38666172029312       -0.81055509716942

          :  Hamiltonian                  GFN2-xTB          :
         :: total energy             -32.796512833305 Eh    ::
         :: gradient norm              0.000553321267 Eh/a0 ::
         :: HOMO-LUMO gap              5.071224965829 eV    ::
         :: SCC energy               -33.224078023574 Eh    ::
         :: -> dispersion             -0.018881536445 Eh    ::
         :: -> Gsolv                  -0.072226339993 Eh    ::
         :: repulsion energy           0.427491005078 Eh    ::

    * Orbital Energies and Occupations

         #    Occupation            Energy/Eh            Energy/eV
      -------------------------------------------------------------
         1        2.0000           -1.0061239             -27.3780
       ...           ...                  ...                  ...
        18        2.0000           -0.4706404             -12.8068
        19        2.0000           -0.4654420             -12.6653
        20        2.0000           -0.4598097             -12.5121
        21        2.0000           -0.4551894             -12.3863
        22        2.0000           -0.4508680             -12.2687
        23        2.0000           -0.4319003             -11.7526
        24        2.0000           -0.4213115             -11.4645
        25        2.0000           -0.4116055             -11.2004
        26        2.0000           -0.4046896             -11.0122
        27        2.0000           -0.4026276             -10.9561
        28        2.0000           -0.4002377             -10.8910
        29        2.0000           -0.3999974             -10.8845
        30        2.0000           -0.3720786             -10.1248 (HOMO)
        31                         -0.1857145              -5.0535 (LUMO)
        32                         -0.0256609              -0.6983
        33                          0.0739829               2.0132
        34                          0.0894682               2.4346
        35                          0.0948461               2.5809
        36                          0.1040568               2.8315
        37                          0.1133565               3.0846
        38                          0.1153436               3.1387
        39                          0.1173072               3.1921
        40                          0.1175720               3.1993
        41                          0.1196801               3.2567
       ...                                ...                  ...
        61                          0.6537686              17.7899
      -------------------------------------------------------------
                  HL-Gap            0.1863641 Eh            5.0712 eV

     #   Z          covCN         q      C6AA      α(0)
     1   7 N        3.484    -0.170    24.670     7.377
     2   6 C        3.733    -0.022    21.063     6.550
     3   6 C        3.810    -0.085    22.122     6.695
     4   6 C        2.945    -0.000    28.036     8.684
     5   6 C        2.898    -0.059    29.455     8.899
     6   6 C        3.808    -0.061    21.669     6.626
     7   6 C        3.807    -0.061    21.676     6.628
     8   6 C        3.807    -0.058    21.610     6.618
     9   6 C        3.812    -0.068    21.795     6.645
    10  17 Cl       0.046    -0.948   124.904    17.009
    11   1 H        0.859     0.304     0.702     1.312
    12   1 H        0.859     0.297     0.722     1.331
    13   1 H        0.903     0.294     0.728     1.335
    14   1 H        0.924     0.104     1.746     2.067
    15   1 H        0.925     0.095     1.831     2.116
    16   1 H        0.924     0.064     2.151     2.293
    17   1 H        0.924     0.061     2.186     2.312
    18   1 H        0.925     0.030     2.589     2.516
    19   1 H        0.924     0.038     2.480     2.463
    20   1 H        0.924     0.041     2.430     2.438
    21   1 H        0.924     0.026     2.639     2.541
    22   1 H        0.924     0.039     2.469     2.457
    23   1 H        0.924     0.029     2.598     2.521
    24   1 H        0.924     0.026     2.645     2.543
    25   1 H        0.924     0.036     2.497     2.471
    26   1 H        0.924     0.048     2.342     2.393

Wiberg/Mayer (AO) data.
largest (>0.10) Wiberg bond orders for each atom

     #   Z sym  total        # sym  WBO       # sym  WBO       # sym  WBO
 ---------------------------------------------------------------------------
     1   7 N    3.644 --     2 C    0.968    12 H    0.896    11 H    0.894
                            13 H    0.833
     2   6 C    3.931 --     3 C    0.997    14 H    0.968    15 H    0.968
                             1 N    0.968
     3   6 C    3.991 --     4 C    1.007     2 C    0.997    17 H    0.971
                            16 H    0.960
     4   6 C    3.987 --     5 C    1.885     9 C    1.010     3 C    1.007
     5   6 C    3.988 --     4 C    1.885     6 C    1.024    18 H    0.965
     6   6 C    3.998 --     5 C    1.024     7 C    1.007    20 H    0.966
                            19 H    0.959
     7   6 C    3.998 --     8 C    1.009     6 C    1.007    21 H    0.979
                            22 H    0.978
     8   6 C    3.998 --     7 C    1.009     9 C    1.006    23 H    0.979
                            24 H    0.978
     9   6 C    3.998 --     4 C    1.010     8 C    1.006    25 H    0.969
                            26 H    0.958
    10  17 Cl   0.101
    11   1 H    0.907 --     1 N    0.894
    12   1 H    0.912 --     1 N    0.896
    13   1 H    0.914 --     1 N    0.833
    14   1 H    0.989 --     2 C    0.968
    15   1 H    0.991 --     2 C    0.968
    16   1 H    0.996 --     3 C    0.960
    17   1 H    0.996 --     3 C    0.971
    18   1 H    0.999 --     5 C    0.965
    19   1 H    0.998 --     6 C    0.959
    20   1 H    0.998 --     6 C    0.966
    21   1 H    0.999 --     7 C    0.979
    22   1 H    0.999 --     7 C    0.978
    23   1 H    0.999 --     8 C    0.979
    24   1 H    0.999 --     8 C    0.978
    25   1 H    0.999 --     9 C    0.969
    26   1 H    0.998 --     9 C    0.958
 ---------------------------------------------------------------------------

molecular dipole:
                 x           y           z       tot (Debye)
 q only:        1.558       5.083      -1.437
   full:        1.241       4.366      -1.255      11.969

           -------------------------------------------------
          | TOTAL ENERGY              -32.796512833305 Eh   |
          | GRADIENT NORM               0.000553321267 Eh/α |
          | HOMO-LUMO GAP               5.071224965829 eV   |
           -------------------------------------------------

 * finished run on 2023/01/24 at 15:51:35.930
