   * xtb version 6.5.1 (fef0646) compiled by 'conda@b96dff2e9fd6' on 2023-01-04
          program call               : xtb init.xyz --opt -c 0 -u 0 -P 16

   ID    Z sym.   atoms
    1    7 N      1
    2    6 C      2-5
    3   17 Cl     6
    4    1 H      7-18

          :  Hamiltonian                  GFN2-xTB          :
 * total energy  :   -22.1348530 Eh     change       -0.7564793E-09 Eh
 * total energy  :   -22.1409654 Eh     change       -0.6112342E-02 Eh
 * total energy  :   -22.1457058 Eh     change       -0.4740468E-02 Eh
 * total energy  :   -22.1487255 Eh     change       -0.3019684E-02 Eh
 * total energy  :   -22.1508870 Eh     change       -0.2161453E-02 Eh
 * total energy  :   -22.1525809 Eh     change       -0.1693931E-02 Eh
 * total energy  :   -22.1533009 Eh     change       -0.7200272E-03 Eh
 * total energy  :   -22.1535615 Eh     change       -0.2605303E-03 Eh
 * total energy  :   -22.1536732 Eh     change       -0.1117139E-03 Eh
 * total energy  :   -22.1537288 Eh     change       -0.5562975E-04 Eh
 * total energy  :   -22.1540366 Eh     change       -0.2922639E-04 Eh
 * total energy  :   -22.1540685 Eh     change       -0.3193040E-04 Eh
 * total energy  :   -22.1541028 Eh     change       -0.3429916E-04 Eh
 * total energy  :   -22.1541324 Eh     change       -0.2964367E-04 Eh
 * total energy  :   -22.1541422 Eh     change       -0.9727926E-05 Eh
 * total energy  :   -22.1541586 Eh     change       -0.1641343E-04 Eh
 * total energy  :   -22.1541672 Eh     change       -0.8585892E-05 Eh
 * total energy  :   -22.1541734 Eh     change       -0.6229915E-05 Eh
 * total energy  :   -22.1541750 Eh     change       -0.1565647E-05 Eh
   *** GEOMETRY OPTIMIZATION CONVERGED AFTER 24 ITERATIONS ***

 final structure:
================
18
 xtb: 6.5.1 (fef0646)
N            1.14900010891622       -0.36635633552948        0.12078966364566
C            2.60020062557192       -0.19928887982499        0.05043972177415
C            3.01826512412482        1.22574473251670        0.42695853542255
C            2.69689301794692        1.53570245136360        1.88745691489594
C            4.51172167198720        1.40199505009841        0.16259946771453
Cl          -0.24353238387002        1.63888300642046       -1.48742251046168
H            0.86990664380877       -1.27764820975574       -0.22389151775585
H            0.43293955580822        0.69733876978367       -0.73819364416212
H            0.82040214266799       -0.26231380940990        1.07425953284740
H            2.89865713774791       -0.39660739337068       -0.98181304767845
H            3.12572530597500       -0.91500628549063        0.69976739482773
H            2.46005030299722        1.91765051085698       -0.20910640739174
H            3.15753432418014        0.80190902233574        2.54712887606156
H            1.62368368102534        1.54370344579630        2.06038180567618
H            3.08099258837620        2.51762550491088        2.15153906098863
H            5.09234295571274        0.71643870263644        0.77714453269421
H            4.82028867531746        2.41707082851833        0.39759636646151
H            4.74291852170557        1.20768888814397       -0.88190474556045

          :  Hamiltonian                  GFN2-xTB          :
         :: total energy             -22.154174973203 Eh    ::
         :: gradient norm              0.000758801646 Eh/a0 ::
         :: HOMO-LUMO gap              9.160668998850 eV    ::
         :: SCC energy               -22.396830155684 Eh    ::
         :: -> dispersion             -0.010654902781 Eh    ::
         :: repulsion energy           0.242597337126 Eh    ::

    * Orbital Energies and Occupations

         #    Occupation            Energy/Eh            Energy/eV
      -------------------------------------------------------------
         1        2.0000           -1.0142718             -27.5997
       ...           ...                  ...                  ...
         8        2.0000           -0.5437167             -14.7953
         9        2.0000           -0.5224440             -14.2164
        10        2.0000           -0.5090669             -13.8524
        11        2.0000           -0.4940095             -13.4427
        12        2.0000           -0.4862741             -13.2322
        13        2.0000           -0.4733159             -12.8796
        14        2.0000           -0.4658930             -12.6776
        15        2.0000           -0.4473796             -12.1738
        16        2.0000           -0.4439922             -12.0816
        17        2.0000           -0.4373570             -11.9011
        18        2.0000           -0.3965499             -10.7907
        19        2.0000           -0.3913698             -10.6497
        20        2.0000           -0.3912572             -10.6466 (HOMO)
        21                         -0.0546088              -1.4860 (LUMO)
        22                          0.0156963               0.4271
        23                          0.0702070               1.9104
        24                          0.0708467               1.9278
        25                          0.0762081               2.0737
        26                          0.0765378               2.0827
        27                          0.0812954               2.2122
        28                          0.0857337               2.3329
        29                          0.0906843               2.4676
        30                          0.1151378               3.1331
        31                          0.1326764               3.6103
       ...                                ...                  ...
        41                          0.2959066               8.0520
      -------------------------------------------------------------
                  HL-Gap            0.3366484 Eh            9.1607 eV

     #   Z          covCN         q      C6AA      α(0)
     1   7 N        2.711    -0.303    27.785     7.829
     2   6 C        3.735     0.003    20.611     6.479
     3   6 C        3.850    -0.023    20.951     6.510
     4   6 C        3.755    -0.110    22.668     6.789
     5   6 C        3.757    -0.111    22.684     6.791
     6  17 Cl       0.836    -0.494   115.475    16.439
     7   1 H        0.860     0.166     1.299     1.785
     8   1 H        0.917     0.330     0.625     1.237
     9   1 H        0.860     0.171     1.266     1.763
    10   1 H        0.924     0.050     2.324     2.384
    11   1 H        0.923     0.026     2.650     2.546
    12   1 H        0.924     0.060     2.205     2.322
    13   1 H        0.925     0.034     2.528     2.486
    14   1 H        0.925     0.038     2.470     2.458
    15   1 H        0.925     0.044     2.397     2.421
    16   1 H        0.925     0.037     2.491     2.468
    17   1 H        0.925     0.045     2.383     2.414
    18   1 H        0.925     0.038     2.470     2.458

Wiberg/Mayer (AO) data.
largest (>0.10) Wiberg bond orders for each atom

     #   Z sym  total        # sym  WBO       # sym  WBO       # sym  WBO
 ---------------------------------------------------------------------------
     1   7 N    3.253 --     2 C    1.004     7 H    0.959     9 H    0.954
                             8 H    0.219
     2   6 C    3.972 --     1 N    1.004     3 C    0.994    10 H    0.974
                            11 H    0.971
     3   6 C    3.993 --     4 C    1.010     5 C    1.008     2 C    0.994
                            12 H    0.964
     4   6 C    3.996 --     3 C    1.010    13 H    0.987    15 H    0.985
                            14 H    0.983
     5   6 C    3.996 --     3 C    1.008    16 H    0.987    18 H    0.986
                            17 H    0.986
     6  17 Cl   0.759 --     8 H    0.666
     7   1 H    0.972 --     1 N    0.959
     8   1 H    0.891 --     6 Cl   0.666     1 N    0.219
     9   1 H    0.971 --     1 N    0.954
    10   1 H    0.998 --     2 C    0.974
    11   1 H    0.999 --     2 C    0.971
    12   1 H    0.996 --     3 C    0.964
    13   1 H    0.999 --     4 C    0.987
    14   1 H    0.999 --     4 C    0.983
    15   1 H    0.998 --     4 C    0.985
    16   1 H    0.999 --     5 C    0.987
    17   1 H    0.998 --     5 C    0.986
    18   1 H    0.999 --     5 C    0.986
 ---------------------------------------------------------------------------

molecular dipole:
                 x           y           z       tot (Debye)
 q only:        1.136      -1.192       1.125
   full:        0.950      -1.222       1.084       4.803

           -------------------------------------------------
          | TOTAL ENERGY              -22.154174973203 Eh   |
          | GRADIENT NORM               0.000758801646 Eh/α |
          | HOMO-LUMO GAP               9.160668998850 eV   |
           -------------------------------------------------

 * finished run on 2023/01/23 at 13:43:18.776
