   * xtb version 6.5.1 (fef0646) compiled by 'conda@b96dff2e9fd6' on 2023-01-04
          program call               : xtb init.xyz --opt -c 0 -u 0 -P 16 --alpb water

   ID    Z sym.   atoms
    1    7 N      1
    2    6 C      2-5
    3    8 O      6, 7
    4   17 Cl     8
    5    1 H      9-18

      * Solvation model:               ALPB
        Solvent                        water
        Solvent mass                       1.8000E+01 g/mol
          :  Hamiltonian                  GFN2-xTB          :
 * total energy  :   -29.3091007 Eh     change       -0.1390777E-08 Eh
 * total energy  :   -29.3144765 Eh     change       -0.5375805E-02 Eh
 * total energy  :   -29.3158359 Eh     change       -0.1359416E-02 Eh
 * total energy  :   -29.3163111 Eh     change       -0.4751292E-03 Eh
 * total energy  :   -29.3168480 Eh     change       -0.5369856E-03 Eh
 * total energy  :   -29.3175408 Eh     change       -0.6927094E-03 Eh
 * total energy  :   -29.3182436 Eh     change       -0.7028018E-03 Eh
 * total energy  :   -29.3189296 Eh     change       -0.6860738E-03 Eh
 * total energy  :   -29.3192610 Eh     change       -0.3313341E-03 Eh
 * total energy  :   -29.3195078 Eh     change       -0.2468797E-03 Eh
 * total energy  :   -29.3196480 Eh     change       -0.1401327E-03 Eh
 * total energy  :   -29.3197916 Eh     change       -0.1435841E-03 Eh
 * total energy  :   -29.3198910 Eh     change       -0.9946983E-04 Eh
 * total energy  :   -29.3199354 Eh     change       -0.4440734E-04 Eh
 * total energy  :   -29.3199538 Eh     change       -0.1832397E-04 Eh
 * total energy  :   -29.3199622 Eh     change       -0.8421808E-05 Eh
 * total energy  :   -29.3199664 Eh     change       -0.4176741E-05 Eh
   *** GEOMETRY OPTIMIZATION CONVERGED AFTER 17 ITERATIONS ***

 final structure:
================
18
 xtb: 6.5.1 (fef0646)
N            0.99585221663162        0.33491661639574       -0.18645279133633
C            2.46532173970233        0.21781762532270       -0.19180209886961
C            3.09428927572807        1.27837660447098       -1.09032039616466
C            4.61808587536212        1.17512118998760       -1.06561317316299
C            5.26353255266479        2.14322741883727       -2.02871029507390
O            6.59581119389492        2.13194691655322       -2.06180343811905
O            4.64737572079835        2.89670607964005       -2.74542243939550
Cl          -0.13944171133839       -2.02389645636490        1.36638705442260
H            0.57251738901109       -0.45229452004559        0.37083084463061
H            0.62187864110357        0.26942098362003       -1.13636900720501
H            0.69732134181245        1.21714272625508        0.23480128649356
H            2.72663642487651       -0.78168367686481       -0.53900867733558
H            2.82271349441025        0.32094490497720        0.83243728212883
H            2.80599019644097        2.27784612822491       -0.76403083549976
H            2.75572938546289        1.15699941696741       -2.11993939726397
H            4.92739212286883        0.16422637290761       -1.34031631852090
H            4.99374866396731        1.38383250785386       -0.06176682247692
H            7.00407547660264        1.49036916126165       -1.45258077725146

          :  Hamiltonian                  GFN2-xTB          :
         :: total energy             -29.319966357149 Eh    ::
         :: gradient norm              0.000828110676 Eh/a0 ::
         :: HOMO-LUMO gap              4.488169944944 eV    ::
         :: SCC energy               -29.585107230529 Eh    ::
         :: -> dispersion             -0.009700644858 Eh    ::
         :: -> Gsolv                  -0.091896073765 Eh    ::
         :: repulsion energy           0.265183691568 Eh    ::

    * Orbital Energies and Occupations

         #    Occupation            Energy/Eh            Energy/eV
      -------------------------------------------------------------
         1        2.0000           -1.0069794             -27.4013
       ...           ...                  ...                  ...
        13        2.0000           -0.5448258             -14.8255
        14        2.0000           -0.5372074             -14.6182
        15        2.0000           -0.5151216             -14.0172
        16        2.0000           -0.5032545             -13.6943
        17        2.0000           -0.4769460             -12.9784
        18        2.0000           -0.4755973             -12.9417
        19        2.0000           -0.4692516             -12.7690
        20        2.0000           -0.4607243             -12.5369
        21        2.0000           -0.4363644             -11.8741
        22        2.0000           -0.4220888             -11.4856
        23        2.0000           -0.4042381             -10.9999
        24        2.0000           -0.4009909             -10.9115
        25        2.0000           -0.4008797             -10.9085 (HOMO)
        26                         -0.2359425              -6.4203 (LUMO)
        27                         -0.0297465              -0.8094
        28                          0.0545780               1.4851
        29                          0.0711259               1.9354
        30                          0.0846392               2.3031
        31                          0.1105275               3.0076
        32                          0.1129230               3.0728
        33                          0.1162587               3.1636
        34                          0.1164305               3.1682
        35                          0.1187398               3.2311
        36                          0.1187424               3.2311
       ...                                ...                  ...
        47                          0.6074316              16.5291
      -------------------------------------------------------------
                  HL-Gap            0.1649372 Eh            4.4882 eV

     #   Z          covCN         q      C6AA      α(0)
     1   7 N        3.483    -0.167    24.602     7.367
     2   6 C        3.733    -0.027    21.152     6.564
     3   6 C        3.804    -0.079    22.000     6.677
     4   6 C        3.804    -0.118    22.750     6.790
     5   6 C        2.689     0.372    20.700     7.446
     6   8 O        1.659    -0.431    21.464     6.254
     7   8 O        0.856    -0.464    23.000     6.430
     8  17 Cl       0.058    -0.945   124.812    17.003
     9   1 H        0.914     0.297     0.717     1.324
    10   1 H        0.859     0.297     0.723     1.332
    11   1 H        0.859     0.299     0.717     1.327
    12   1 H        0.925     0.101     1.775     2.084
    13   1 H        0.925     0.104     1.747     2.067
    14   1 H        0.925     0.076     2.019     2.222
    15   1 H        0.924     0.074     2.040     2.234
    16   1 H        0.924     0.098     1.807     2.102
    17   1 H        0.924     0.098     1.802     2.099
    18   1 H        0.804     0.415     0.457     1.062

Wiberg/Mayer (AO) data.
largest (>0.10) Wiberg bond orders for each atom

     #   Z sym  total        # sym  WBO       # sym  WBO       # sym  WBO
 ---------------------------------------------------------------------------
     1   7 N    3.645 --     2 C    0.971    11 H    0.896    10 H    0.896
                             9 H    0.828
     2   6 C    3.930 --     3 C    1.009     1 N    0.971    12 H    0.967
                            13 H    0.966
     3   6 C    3.988 --     2 C    1.009     4 C    1.007    14 H    0.972
                            15 H    0.971
     4   6 C    3.991 --     3 C    1.007     5 C    0.985    17 H    0.946
                            16 H    0.944
     5   6 C    3.901 --     7 O    1.725     6 O    1.154     4 C    0.985
     6   8 O    2.168 --     5 C    1.154    18 H    0.806     7 O    0.158
     7   8 O    1.997 --     5 C    1.725     6 O    0.158
     8  17 Cl   0.106
     9   1 H    0.911 --     1 N    0.828
    10   1 H    0.912 --     1 N    0.896
    11   1 H    0.911 --     1 N    0.896
    12   1 H    0.990 --     2 C    0.967
    13   1 H    0.989 --     2 C    0.966
    14   1 H    0.994 --     3 C    0.972
    15   1 H    0.994 --     3 C    0.971
    16   1 H    0.990 --     4 C    0.944
    17   1 H    0.990 --     4 C    0.946
    18   1 H    0.828 --     6 O    0.806
 ---------------------------------------------------------------------------

molecular dipole:
                 x           y           z       tot (Debye)
 q only:        2.831       2.721      -1.353
   full:        2.506       2.032      -0.856       8.484

           -------------------------------------------------
          | TOTAL ENERGY              -29.319966357149 Eh   |
          | GRADIENT NORM               0.000828110676 Eh/α |
          | HOMO-LUMO GAP               4.488169944944 eV   |
           -------------------------------------------------

 * finished run on 2023/01/24 at 14:57:47.135
