   * xtb version 6.5.1 (fef0646) compiled by 'conda@b96dff2e9fd6' on 2023-01-04
          program call               : xtb init.xyz --opt -c 1 -u 0 -P 16 --input xtb.inp

   ID    Z sym.   atoms
    1    7 N      1
    2    6 C      2-8
    3    1 H      9-18

          :  Hamiltonian                  GFN2-xTB          :
 * total energy  :   -22.5526588 Eh     change       -0.4584884E-09 Eh
 * total energy  :   -22.5544229 Eh     change       -0.1764010E-02 Eh
 * total energy  :   -22.5546468 Eh     change       -0.2239438E-03 Eh
 * total energy  :   -22.5546947 Eh     change       -0.4791076E-04 Eh
 * total energy  :   -22.5547149 Eh     change       -0.2014234E-04 Eh
 * total energy  :   -22.5547247 Eh     change       -0.9884441E-05 Eh
 * total energy  :   -22.5547299 Eh     change       -0.5196137E-05 Eh
 * total energy  :   -22.5547326 Eh     change       -0.2701449E-05 Eh
   *** GEOMETRY OPTIMIZATION CONVERGED AFTER 8 ITERATIONS ***

 final structure:
================
18
 xtb: 6.5.1 (fef0646)
N            1.37679567746128        0.68705224768771       -0.70746763881681
C            2.55115531822285        0.03220142173939       -0.02072866747547
C            3.02004372268567       -1.12935742829212       -0.84961585948223
C            3.96608769347904       -0.93516633323549       -1.85052850280692
C            4.37833145318222       -2.00033787841689       -2.63137125867349
C            3.84469800254672       -3.26161453335864       -2.42057458740331
C            2.89953661982152       -3.45950538249907       -1.42690470254742
C            2.48486875423538       -2.39643449322327       -0.64432785596466
H            1.02812724634898        1.49695989972927       -0.17944199098636
H            0.61841749504719       -0.00001398618974       -0.81272270024616
H            1.66232899940056        0.99279763683352       -1.64733658253863
H            2.22607813445484       -0.29528329563567        0.96739087968020
H            3.33783166733343        0.77951605926435        0.08924879991418
H            4.39685949847808        0.04350308140601       -2.00640003156566
H            5.11898577992466       -1.84677784991762       -3.39987991497139
H            4.17002253305179       -4.09180800840792       -3.02700425545807
H            2.48877179628422       -4.44205067671601       -1.25775413255255
H            1.75980960804154       -2.55763048076784        0.14039900189474

          :  Hamiltonian                  GFN2-xTB          :
         :: total energy             -22.554732637146 Eh    ::
         :: gradient norm              0.000396703127 Eh/a0 ::
         :: HOMO-LUMO gap              4.562531836936 eV    ::
         :: SCC energy               -22.957738588533 Eh    ::
         :: -> dispersion             -0.012082403540 Eh    ::
         :: repulsion energy           0.402963062932 Eh    ::

    * Orbital Energies and Occupations

         #    Occupation            Energy/Eh            Energy/eV
      -------------------------------------------------------------
         1        2.0000           -0.8911851             -24.2504
       ...           ...                  ...                  ...
         9        2.0000           -0.7122473             -19.3812
        10        2.0000           -0.7051693             -19.1886
        11        2.0000           -0.6696672             -18.2226
        12        2.0000           -0.6662331             -18.1291
        13        2.0000           -0.6385891             -17.3769
        14        2.0000           -0.6225991             -16.9418
        15        2.0000           -0.6155697             -16.7505
        16        2.0000           -0.6127609             -16.6741
        17        2.0000           -0.6112393             -16.6327
        18        2.0000           -0.5596733             -15.2295
        19        2.0000           -0.5544801             -15.0882
        20        2.0000           -0.5432263             -14.7819
        21        2.0000           -0.5409475             -14.7199 (HOMO)
        22                         -0.3732776             -10.1574 (LUMO)
        23                         -0.3586809              -9.7602
        24                         -0.2620137              -7.1298
        25                         -0.2214820              -6.0268
        26                         -0.1514937              -4.1224
        27                         -0.0929195              -2.5285
        28                         -0.0905866              -2.4650
        29                         -0.0493056              -1.3417
        30                         -0.0186691              -0.5080
        31                          0.0055445               0.1509
        32                          0.0265670               0.7229
       ...                                ...                  ...
        42                          0.5271199              14.3437
      -------------------------------------------------------------
                  HL-Gap            0.1676700 Eh            4.5625 eV

     #   Z          covCN         q      C6AA      α(0)
     1   7 N        3.482    -0.130    23.801     7.246
     2   6 C        3.735    -0.035    21.286     6.584
     3   6 C        2.972    -0.015    28.370     8.737
     4   6 C        2.922    -0.039    28.957     8.825
     5   6 C        2.919    -0.019    28.483     8.752
     6   6 C        2.920    -0.015    28.379     8.736
     7   6 C        2.919    -0.019    28.481     8.752
     8   6 C        2.922    -0.038    28.947     8.823
     9   1 H        0.859     0.267     0.819     1.418
    10   1 H        0.859     0.271     0.807     1.407
    11   1 H        0.859     0.271     0.806     1.407
    12   1 H        0.924     0.105     1.737     2.061
    13   1 H        0.924     0.105     1.736     2.061
    14   1 H        0.926     0.045     2.389     2.417
    15   1 H        0.926     0.065     2.140     2.288
    16   1 H        0.926     0.068     2.103     2.268
    17   1 H        0.926     0.065     2.139     2.287
    18   1 H        0.926     0.045     2.382     2.414

Wiberg/Mayer (AO) data.
largest (>0.10) Wiberg bond orders for each atom

     #   Z sym  total        # sym  WBO       # sym  WBO       # sym  WBO
 ---------------------------------------------------------------------------
     1   7 N    3.674 --     9 H    0.914    10 H    0.911    11 H    0.911
                             2 C    0.903
     2   6 C    3.883 --     3 C    1.006    12 H    0.966    13 H    0.966
                             1 N    0.903
     3   6 C    3.972 --     8 C    1.406     4 C    1.405     2 C    1.006
                             6 C    0.107
     4   6 C    3.991 --     5 C    1.446     3 C    1.405    14 H    0.968
                             7 C    0.109
     5   6 C    3.989 --     4 C    1.446     6 C    1.437    15 H    0.968
                             8 C    0.109
     6   6 C    3.987 --     7 C    1.437     5 C    1.437    16 H    0.968
                             3 C    0.107
     7   6 C    3.989 --     8 C    1.446     6 C    1.437    17 H    0.968
                             4 C    0.109
     8   6 C    3.991 --     7 C    1.446     3 C    1.406    18 H    0.968
                             5 C    0.109
     9   1 H    0.928 --     1 N    0.914
    10   1 H    0.927 --     1 N    0.911
    11   1 H    0.927 --     1 N    0.911
    12   1 H    0.989 --     2 C    0.966
    13   1 H    0.989 --     2 C    0.966
    14   1 H    0.998 --     4 C    0.968
    15   1 H    0.995 --     5 C    0.968
    16   1 H    0.995 --     6 C    0.968
    17   1 H    0.995 --     7 C    0.968
    18   1 H    0.998 --     8 C    0.968
 ---------------------------------------------------------------------------

molecular dipole:
                 x           y           z       tot (Debye)
 q only:        3.367       0.231      -1.670
   full:        3.187       0.407      -1.684       9.219

           -------------------------------------------------
          | TOTAL ENERGY              -22.554732637146 Eh   |
          | GRADIENT NORM               0.000396703127 Eh/α |
          | HOMO-LUMO GAP               4.562531836936 eV   |
           -------------------------------------------------

 * finished run on 2023/01/23 at 18:52:12.088
