   * xtb version 6.5.1 (fef0646) compiled by 'conda@b96dff2e9fd6' on 2023-01-04
          program call               : xtb init.xyz --opt -c 1 -u 0 -P 16 --alpb water

   ID    Z sym.   atoms
    1    7 N      1, 24, 26
    2    6 C      2-21, 23, 27
    3   16 S      22, 25, 28, 29
    4    1 H      30-49

      * Solvation model:               ALPB
        Solvent                        water
        Solvent mass                       1.8000E+01 g/mol
          :  Hamiltonian                  GFN2-xTB          :
 * total energy  :   -78.7240507 Eh     change       -0.1810605E-08 Eh
 * total energy  :   -78.7395346 Eh     change       -0.1548390E-01 Eh
 * total energy  :   -78.7448538 Eh     change       -0.5319198E-02 Eh
 * total energy  :   -78.7463395 Eh     change       -0.1485684E-02 Eh
 * total energy  :   -78.7473580 Eh     change       -0.1018537E-02 Eh
 * total energy  :   -78.7479433 Eh     change       -0.5852624E-03 Eh
 * total energy  :   -78.7485111 Eh     change       -0.5678810E-03 Eh
 * total energy  :   -78.7489849 Eh     change       -0.4737767E-03 Eh
 * total energy  :   -78.7492995 Eh     change       -0.3146160E-03 Eh
 * total energy  :   -78.7495337 Eh     change       -0.2341916E-03 Eh
 * total energy  :   -78.7515143 Eh     change       -0.1206521E-04 Eh
 * total energy  :   -78.7515355 Eh     change       -0.2124066E-04 Eh
 * total energy  :   -78.7515514 Eh     change       -0.1588564E-04 Eh
 * total energy  :   -78.7515628 Eh     change       -0.1134102E-04 Eh
 * total energy  :   -78.7515734 Eh     change       -0.1066058E-04 Eh
 * total energy  :   -78.7515806 Eh     change       -0.7147019E-05 Eh
 * total energy  :   -78.7515863 Eh     change       -0.5763575E-05 Eh
 * total energy  :   -78.7515928 Eh     change       -0.6498085E-05 Eh
 * total energy  :   -78.7515953 Eh     change       -0.2460815E-05 Eh
   *** GEOMETRY OPTIMIZATION CONVERGED AFTER 44 ITERATIONS ***

 final structure:
================
49
 xtb: 6.5.1 (fef0646)
N            3.42341320403888       -0.77990061110533        1.50455421425468
C            2.68854479457576       -0.57180442258513        0.23827965480865
C            3.46991199528239        0.35880658541279       -0.69288931785671
C            4.69924478116496       -0.28391686876840       -1.24129101170449
C            4.94630536753586       -0.69284269862702       -2.51689124276706
C            6.21343290544382       -1.28277168652364       -2.68382025690792
C            6.95399145456877       -1.33185614861095       -1.53119899760876
C            8.25545928101881       -1.86809788402256       -1.32095767041497
C            9.00228029180013       -1.86051162699850       -0.16888404404811
C           10.25224227242708       -2.48934730565702       -0.29462859221088
C           11.21842759077293       -2.53168295118052        0.84291494984365
C           10.46275743280176       -2.99081249083494       -1.56710057882560
C           11.57010653241715       -3.72869600871304       -2.11272622355704
C           12.47028805996726       -4.46609233454421       -1.36017947267831
C           13.52470297449362       -5.18811629774878       -1.92412737634752
C           13.76001604680337       -5.24963816285209       -3.28714717635435
C           14.83422279173420       -6.00441893428387       -3.88426063767697
C           15.46210271536813       -7.14902534973690       -3.44291903707606
C           15.11032505029223       -7.93661000251734       -2.22362557378816
C           16.48807322385875       -7.56300460741740       -4.32504726020746
C           16.63329444189081       -6.75376023881141       -5.40456951053596
S           15.50260621111804       -5.46268139147670       -5.40276136299812
C           12.86826707645400       -4.50035493584733       -4.09659242199499
N           12.88622297743039       -4.39620844879668       -5.42631582767483
S           11.67105684826191       -3.45786903466766       -5.89967741618901
N           11.05378451513863       -3.13854564234791       -4.44568567110554
C           11.78168817771354       -3.76045212885965       -3.51720997040070
S            9.11662302129892       -2.64450439719955       -2.62048576572340
S            6.07524900433508       -0.62249280269100       -0.22126196453928
H            2.91862119597123       -1.42443857213294        2.12169988659635
H            3.55702682174456        0.11455425605771        1.98917109066165
H            4.35833759845827       -1.16474779471267        1.30357771300146
H            1.71843002576759       -0.12644636129748        0.45404620528532
H            2.53501963110320       -1.53243667167650       -0.25201418137180
H            3.74186574022807        1.27018578301128       -0.15936049021583
H            2.83110134629831        0.63656289220924       -1.53014625847032
H            4.24671630914732       -0.57746547906781       -3.32485645489963
H            6.59070354726916       -1.66428797867906       -3.61645580520018
H            8.66757133759812       -1.40898052319583        0.74898170362091
H           10.98368158059798       -1.73894853550923        1.54846188392701
H           12.23944271614898       -2.39925438244653        0.49226872431656
H           11.15178529976937       -3.48275112591554        1.37059792915647
H           12.35055979148938       -4.51473507098731       -0.29227967146708
H           14.19353925713121       -5.70308253789268       -1.25611047544955
H           14.04549954880660       -7.87458675497193       -2.01293329375423
H           15.66139987949437       -7.57064084169288       -1.35756144661845
H           15.38164402739691       -8.97838129801531       -2.37545889491390
H           17.09028093014287       -8.43676325449035       -4.15213315131205
H           17.33027237542831       -6.83863692057770       -6.21363945060417

          :  Hamiltonian                  GFN2-xTB          :
         :: total energy             -78.751595305461 Eh    ::
         :: gradient norm              0.000213690162 Eh/a0 ::
         :: HOMO-LUMO gap              1.214571117340 eV    ::
         :: SCC energy               -79.909332034948 Eh    ::
         :: -> dispersion             -0.065254029052 Eh    ::
         :: -> Gsolv                  -0.129601551278 Eh    ::
         :: repulsion energy           1.158268589702 Eh    ::

    * Orbital Energies and Occupations

         #    Occupation            Energy/Eh            Energy/eV
      -------------------------------------------------------------
         1        2.0000           -0.7710064             -20.9802
       ...           ...                  ...                  ...
        61        2.0000           -0.4479698             -12.1899
        62        2.0000           -0.4454501             -12.1213
        63        2.0000           -0.4405512             -11.9880
        64        2.0000           -0.4303285             -11.7098
        65        2.0000           -0.4229669             -11.5095
        66        2.0000           -0.4208757             -11.4526
        67        2.0000           -0.4203171             -11.4374
        68        2.0000           -0.4086925             -11.1211
        69        2.0000           -0.4023591             -10.9487
        70        2.0000           -0.3953898             -10.7591
        71        2.0000           -0.3921707             -10.6715
        72        2.0000           -0.3834311             -10.4337
        73        2.0000           -0.3616587              -9.8412 (HOMO)
        74                         -0.3170241              -8.6267 (LUMO)
        75                         -0.2791941              -7.5973
        76                         -0.2567094              -6.9854
        77                         -0.2320683              -6.3149
        78                         -0.2294654              -6.2441
        79                         -0.2256504              -6.1403
        80                         -0.2186319              -5.9493
        81                         -0.2030204              -5.5245
        82                         -0.2025107              -5.5106
        83                         -0.1945815              -5.2948
        84                         -0.1772985              -4.8245
       ...                                ...                  ...
       156                          0.7125604              19.3898
      -------------------------------------------------------------
                  HL-Gap            0.0446347 Eh            1.2146 eV

     #   Z          covCN         q      C6AA      α(0)
     1   7 N        3.485    -0.164    24.539     7.357
     2   6 C        3.733    -0.042    21.409     6.604
     3   6 C        3.822    -0.096    22.315     6.722
     4   6 C        2.984     0.026    27.414     8.589
     5   6 C        3.110    -0.059    29.308     8.869
     6   6 C        3.122    -0.052    29.096     8.834
     7   6 C        3.020     0.009    27.794     8.648
     8   6 C        3.023     0.021    27.523     8.605
     9   6 C        3.099    -0.068    29.561     8.910
    10   6 C        3.123     0.001    27.813     8.637
    11   6 C        3.755    -0.120    22.847     6.815
    12   6 C        2.995     0.008    27.830     8.654
    13   6 C        3.003    -0.011    28.280     8.723
    14   6 C        2.923    -0.049    29.227     8.866
    15   6 C        2.923    -0.048    29.182     8.859
    16   6 C        2.996    -0.009    28.241     8.717
    17   6 C        2.997     0.007    27.849     8.657
    18   6 C        3.135    -0.001    27.830     8.635
    19   6 C        3.755    -0.118    22.820     6.811
    20   6 C        3.117    -0.059    29.287     8.864
    21   6 C        2.932    -0.025    28.627     8.775
    22  16 S        2.329    -0.055   143.354    20.151
    23   6 C        3.344     0.068    23.972     7.732
    24   7 N        1.862    -0.302    28.669     7.936
    25  16 S        2.654     0.349   127.634    19.014
    26   7 N        1.884    -0.297    28.547     7.921
    27   6 C        3.343     0.070    23.971     7.736
    28  16 S        2.369    -0.082   144.478    20.230
    29  16 S        2.378    -0.024   142.047    20.059
    30   1 H        0.859     0.321     0.654     1.266
    31   1 H        0.859     0.315     0.670     1.282
    32   1 H        0.859     0.304     0.701     1.312
    33   1 H        0.925     0.126     1.565     1.956
    34   1 H        0.925     0.116     1.646     2.006
    35   1 H        0.924     0.106     1.727     2.055
    36   1 H        0.925     0.095     1.832     2.117
    37   1 H        0.926     0.050     2.320     2.382
    38   1 H        0.926     0.024     2.679     2.560
    39   1 H        0.926     0.068     2.109     2.271
    40   1 H        0.925     0.068     2.113     2.273
    41   1 H        0.925     0.048     2.339     2.392
    42   1 H        0.925     0.063     2.161     2.299
    43   1 H        0.926     0.067     2.121     2.278
    44   1 H        0.926     0.062     2.172     2.305
    45   1 H        0.925     0.055     2.260     2.351
    46   1 H        0.925     0.063     2.162     2.299
    47   1 H        0.925     0.061     2.191     2.315
    48   1 H        0.926     0.051     2.304     2.374
    49   1 H        0.926     0.058     2.216     2.328

Wiberg/Mayer (AO) data.
largest (>0.10) Wiberg bond orders for each atom

     #   Z sym  total        # sym  WBO       # sym  WBO       # sym  WBO
 ---------------------------------------------------------------------------
     1   7 N    3.649 --     2 C    0.973    31 H    0.885    30 H    0.883
                            32 H    0.873
     2   6 C    3.926 --     3 C    0.993     1 N    0.973    34 H    0.965
                            33 H    0.961
     3   6 C    3.983 --     4 C    1.026     2 C    0.993    36 H    0.958
                            35 H    0.952
     4   6 C    3.921 --     5 C    1.578    29 S    1.144     3 C    1.026
     5   6 C    3.985 --     4 C    1.578     6 C    1.299    37 H    0.962
     6   6 C    3.971 --     7 C    1.511     5 C    1.299    38 H    0.961
     7   6 C    3.954 --     6 C    1.511     8 C    1.164    29 S    1.109
     8   6 C    3.922 --     9 C    1.476     7 C    1.164    28 S    1.126
     9   6 C    3.974 --     8 C    1.476    10 C    1.312    39 H    0.959
    10   6 C    3.950 --    12 C    1.448     9 C    1.312    11 C    1.027
    11   6 C    3.992 --    10 C    1.027    40 H    0.978    41 H    0.974
                            42 H    0.961
    12   6 C    3.929 --    10 C    1.448    13 C    1.143    28 S    1.118
    13   6 C    3.950 --    14 C    1.429    27 C    1.189    12 C    1.143
    14   6 C    3.975 --    13 C    1.429    15 C    1.364    43 H    0.961
    15   6 C    3.987 --    16 C    1.437    14 C    1.364    44 H    0.963
    16   6 C    3.942 --    15 C    1.437    23 C    1.195    17 C    1.124
    17   6 C    3.941 --    18 C    1.488    16 C    1.124    22 S    1.121
    18   6 C    3.951 --    17 C    1.488    20 C    1.269    19 C    1.027
    19   6 C    3.993 --    18 C    1.027    47 H    0.978    45 H    0.976
                            46 H    0.962
    20   6 C    3.982 --    21 C    1.607    18 C    1.269    48 H    0.963
    21   6 C    3.925 --    20 C    1.607    22 S    1.202    49 H    0.968
    22  16 S    2.623 --    21 C    1.202    17 C    1.121
    23   6 C    3.970 --    24 N    1.384    16 C    1.195    27 C    1.171
    24   7 N    3.080 --    25 S    1.419    23 C    1.384    26 N    0.161
    25  16 S    3.165 --    24 N    1.419    26 N    1.408    27 C    0.102
    26   7 N    3.087 --    25 S    1.408    27 C    1.387    24 N    0.161
    27   6 C    3.968 --    26 N    1.387    13 C    1.189    23 C    1.171
                            25 S    0.102
    28  16 S    2.599 --     8 C    1.126    12 C    1.118
    29  16 S    2.575 --     4 C    1.144     7 C    1.109
    30   1 H    0.897 --     1 N    0.883
    31   1 H    0.901 --     1 N    0.885
    32   1 H    0.907 --     1 N    0.873
    33   1 H    0.983 --     2 C    0.961
    34   1 H    0.987 --     2 C    0.965
    35   1 H    0.987 --     3 C    0.952
    36   1 H    0.991 --     3 C    0.958
    37   1 H    0.997 --     5 C    0.962
    38   1 H    0.999 --     6 C    0.961
    39   1 H    0.995 --     9 C    0.959
    40   1 H    0.995 --    11 C    0.978
    41   1 H    0.997 --    11 C    0.974
    42   1 H    0.993 --    11 C    0.961
    43   1 H    0.994 --    14 C    0.961
    44   1 H    0.994 --    15 C    0.963
    45   1 H    0.996 --    19 C    0.976
    46   1 H    0.994 --    19 C    0.962
    47   1 H    0.996 --    19 C    0.978
    48   1 H    0.997 --    20 C    0.963
    49   1 H    0.996 --    21 C    0.968
 ---------------------------------------------------------------------------

molecular dipole:
                 x           y           z       tot (Debye)
 q only:        5.621      -1.274       4.209
   full:        6.817      -1.831       3.629      20.174

           -------------------------------------------------
          | TOTAL ENERGY              -78.751595305461 Eh   |
          | GRADIENT NORM               0.000213690162 Eh/α |
          | HOMO-LUMO GAP               1.214571117340 eV   |
           -------------------------------------------------

 * finished run on 2023/01/24 at 15:37:50.475
