   * xtb version 6.5.1 (fef0646) compiled by 'conda@b96dff2e9fd6' on 2023-01-04
          program call               : xtb init.xyz --opt -c 1 -u 0 -P 16 --input xtb.inp

   ID    Z sym.   atoms
    1    7 N      1
    2    6 C      2-5
    3    8 O      6, 7
    4    1 H      8-17

          :  Hamiltonian                  GFN2-xTB          :
 * total energy  :   -24.2717992 Eh     change       -0.8934364E-10 Eh
 * total energy  :   -24.2745661 Eh     change       -0.2766915E-02 Eh
 * total energy  :   -24.2749735 Eh     change       -0.4073267E-03 Eh
 * total energy  :   -24.2750841 Eh     change       -0.1106024E-03 Eh
 * total energy  :   -24.2751241 Eh     change       -0.4006676E-04 Eh
 * total energy  :   -24.2751479 Eh     change       -0.2382548E-04 Eh
 * total energy  :   -24.2751545 Eh     change       -0.6544444E-05 Eh
 * total energy  :   -24.2751568 Eh     change       -0.2332155E-05 Eh
   *** GEOMETRY OPTIMIZATION CONVERGED AFTER 8 ITERATIONS ***

 final structure:
================
17
 xtb: 6.5.1 (fef0646)
N            1.01658631472487        0.07260907307955       -0.05831167433689
C            2.51214022519209        0.06052974131748       -0.01648444541479
C            3.05866716947350        0.39845516426005       -1.39474213639717
C            4.58652946213404        0.40792975691627       -1.43754731627869
C            5.02866881847909        0.75799844763737       -2.86688019960540
O            6.33939644711002        0.80560223393980       -3.06930113353952
O            4.23786242502043        0.97065956677330       -3.73608183216068
H            0.60674539841888       -0.15183520778260        0.85725197087578
H            0.68358417919429       -0.61324780826074       -0.75008258580093
H            0.68553786649958        1.00170252669643       -0.35331111559869
H            2.84168897759780       -0.93075563320141        0.29911650503241
H            2.84375282760872        0.79198986139884        0.72233476310599
H            2.71017284699976        1.38306335862603       -1.71229345059957
H            2.70894745176447       -0.32668952005785       -2.13203968955608
H            4.99071040213189       -0.57082978593435       -1.17053482973512
H            4.99178752501682        1.15207812811239       -0.74864154817014
H            6.88454166263370        0.61564009647940       -2.29416128182053

          :  Hamiltonian                  GFN2-xTB          :
         :: total energy             -24.275156825979 Eh    ::
         :: gradient norm              0.000304979274 Eh/a0 ::
         :: HOMO-LUMO gap              5.186894286978 eV    ::
         :: SCC energy               -24.543563582048 Eh    ::
         :: -> dispersion             -0.008188361020 Eh    ::
         :: repulsion energy           0.268411436815 Eh    ::

    * Orbital Energies and Occupations

         #    Occupation            Energy/Eh            Energy/eV
      -------------------------------------------------------------
         1        2.0000           -0.9055055             -24.6401
       ...           ...                  ...                  ...
         9        2.0000           -0.7561713             -20.5765
        10        2.0000           -0.7396732             -20.1275
        11        2.0000           -0.7073862             -19.2490
        12        2.0000           -0.7019784             -19.1018
        13        2.0000           -0.6916211             -18.8200
        14        2.0000           -0.6778703             -18.4458
        15        2.0000           -0.6560065             -17.8508
        16        2.0000           -0.6457500             -17.5718
        17        2.0000           -0.6272794             -17.0691
        18        2.0000           -0.6160498             -16.7636
        19        2.0000           -0.6027749             -16.4023
        20        2.0000           -0.5857543             -15.9392
        21        2.0000           -0.5356686             -14.5763 (HOMO)
        22                         -0.3450537              -9.3894 (LUMO)
        23                         -0.2751681              -7.4877
        24                         -0.1707846              -4.6473
        25                         -0.1175849              -3.1996
        26                         -0.1127373              -3.0677
        27                         -0.0811980              -2.2095
        28                         -0.0651259              -1.7722
        29                         -0.0316614              -0.8616
        30                         -0.0213084              -0.5798
        31                         -0.0161096              -0.4384
        32                          0.0038041               0.1035
       ...                                ...                  ...
        38                          0.5391207              14.6702
      -------------------------------------------------------------
                  HL-Gap            0.1906149 Eh            5.1869 eV

     #   Z          covCN         q      C6AA      α(0)
     1   7 N        3.483    -0.128    23.765     7.240
     2   6 C        3.730    -0.034    21.282     6.585
     3   6 C        3.806    -0.082    22.057     6.686
     4   6 C        3.800    -0.111    22.621     6.772
     5   6 C        2.689     0.361    20.870     7.476
     6   8 O        1.660    -0.341    19.731     5.996
     7   8 O        0.857    -0.355    20.797     6.114
     8   1 H        0.859     0.272     0.802     1.403
     9   1 H        0.859     0.277     0.788     1.390
    10   1 H        0.859     0.277     0.788     1.390
    11   1 H        0.924     0.109     1.705     2.042
    12   1 H        0.924     0.109     1.705     2.042
    13   1 H        0.924     0.084     1.941     2.179
    14   1 H        0.924     0.084     1.941     2.178
    15   1 H        0.924     0.072     2.062     2.246
    16   1 H        0.924     0.072     2.062     2.246
    17   1 H        0.805     0.334     0.628     1.245

Wiberg/Mayer (AO) data.
largest (>0.10) Wiberg bond orders for each atom

     #   Z sym  total        # sym  WBO       # sym  WBO       # sym  WBO
 ---------------------------------------------------------------------------
     1   7 N    3.675 --     2 C    0.927     8 H    0.911    10 H    0.907
                             9 H    0.907
     2   6 C    3.889 --     3 C    1.009    11 H    0.966    12 H    0.966
                             1 N    0.927
     3   6 C    3.979 --     2 C    1.009     4 C    1.004    13 H    0.968
                            14 H    0.968
     4   6 C    3.993 --     3 C    1.004    16 H    0.961    15 H    0.961
                             5 C    0.946
     5   6 C    3.927 --     7 O    1.797     6 O    1.157     4 C    0.946
     6   8 O    2.243 --     5 C    1.157    17 H    0.866     7 O    0.172
     7   8 O    2.086 --     5 C    1.797     6 O    0.172
     8   1 H    0.925 --     1 N    0.911
     9   1 H    0.924 --     1 N    0.907
    10   1 H    0.924 --     1 N    0.907
    11   1 H    0.988 --     2 C    0.966
    12   1 H    0.988 --     2 C    0.966
    13   1 H    0.993 --     3 C    0.968
    14   1 H    0.993 --     3 C    0.968
    15   1 H    0.995 --     4 C    0.961
    16   1 H    0.995 --     4 C    0.961
    17   1 H    0.889 --     6 O    0.866
 ---------------------------------------------------------------------------

molecular dipole:
                 x           y           z       tot (Debye)
 q only:        3.429      -0.089       0.813
   full:        3.339      -0.195       1.248       9.074

           -------------------------------------------------
          | TOTAL ENERGY              -24.275156825979 Eh   |
          | GRADIENT NORM               0.000304979274 Eh/α |
          | HOMO-LUMO GAP               5.186894286978 eV   |
           -------------------------------------------------

 * finished run on 2023/01/23 at 19:54:26.978
