   * xtb version 6.5.1 (fef0646) compiled by 'conda@b96dff2e9fd6' on 2023-01-04
          program call               : xtb init.xyz --opt -c 1 -u 0 -P 16

   ID    Z sym.   atoms
    1    7 N      1
    2    6 C      2-5, 7, 9, 11, 13
    3    9 F      6, 8, 10, 12, 14
    4    1 H      15-21

          :  Hamiltonian                  GFN2-xTB          :
 * total energy  :   -46.8019666 Eh     change       -0.1206857E-09 Eh
 * total energy  :   -46.8034808 Eh     change       -0.1514226E-02 Eh
 * total energy  :   -46.8037537 Eh     change       -0.2728459E-03 Eh
 * total energy  :   -46.8037658 Eh     change       -0.1211305E-04 Eh
 * total energy  :   -46.8037700 Eh     change       -0.4211493E-05 Eh
   *** GEOMETRY OPTIMIZATION CONVERGED AFTER 5 ITERATIONS ***

 final structure:
================
21
 xtb: 6.5.1 (fef0646)
N            0.94470957299340        0.19381987490868       -0.05928364128786
C            2.43798471260061        0.19620662775452       -0.06522349541166
C            2.96327802887139        0.17138049263246       -1.50096310448237
C            4.47158768312602        0.16984592469070       -1.50077670596169
C            5.18824925629120       -1.02127127593130       -1.49795381212221
F            4.50318020001537       -2.16994812678429       -1.46642962608893
C            6.57927707852208       -1.03869559379103       -1.51589976000195
F            7.23350853634798       -2.19020285486426       -1.51283989913551
C            7.27801751174864        0.16967106059958       -1.52913856306092
F            8.59943564737154        0.16975697448378       -1.54402553382792
C            6.57946583876779        1.37828811917267       -1.51546770310500
F            7.23406470174547        2.52956497579802       -1.51178143669242
C            5.18863440900390        1.36080975130477       -1.49769217320639
F            4.50267368128529        2.50917570183435       -1.46560951397279
H            0.57765145005111        0.21026046685588        0.90108260871590
H            0.59176522697368       -0.64977092304691       -0.53228425381175
H            0.58896621546938        1.01895071777585       -0.56183614372070
H            2.79043248315672       -0.68230813116021        0.47811788066423
H            2.78746076677903        1.09485913371013        0.44620533531687
H            2.61838732528023        1.05280154514512       -2.04403575460190
H            2.61623967359917       -0.72643446108853       -2.01483470420502

          :  Hamiltonian                  GFN2-xTB          :
         :: total energy             -46.803770001830 Eh    ::
         :: gradient norm              0.000811962044 Eh/a0 ::
         :: HOMO-LUMO gap              4.108984515810 eV    ::
         :: SCC energy               -47.213739842458 Eh    ::
         :: -> dispersion             -0.016382091324 Eh    ::
         :: repulsion energy           0.409941533151 Eh    ::

    * Orbital Energies and Occupations

         #    Occupation            Energy/Eh            Energy/eV
      -------------------------------------------------------------
         1        2.0000           -0.9802015             -26.6726
       ...           ...                  ...                  ...
        27        2.0000           -0.6783659             -18.4593
        28        2.0000           -0.6722251             -18.2922
        29        2.0000           -0.6635196             -18.0553
        30        2.0000           -0.6534864             -17.7823
        31        2.0000           -0.6472621             -17.6129
        32        2.0000           -0.6430461             -17.4982
        33        2.0000           -0.6391815             -17.3930
        34        2.0000           -0.6247612             -17.0006
        35        2.0000           -0.6097478             -16.5921
        36        2.0000           -0.6089367             -16.5700
        37        2.0000           -0.5947651             -16.1844
        38        2.0000           -0.5628115             -15.3149
        39        2.0000           -0.5590239             -15.2118 (HOMO)
        40                         -0.4080215             -11.1028 (LUMO)
        41                         -0.4001679             -10.8891
        42                         -0.2851804              -7.7602
        43                         -0.2756123              -7.4998
        44                         -0.1756223              -4.7789
        45                         -0.1418658              -3.8604
        46                         -0.1253622              -3.4113
        47                         -0.1183322              -3.2200
        48                         -0.1133406              -3.0842
        49                         -0.0824766              -2.2443
        50                         -0.0802802              -2.1845
       ...                                ...                  ...
        63                          0.4740298              12.8990
      -------------------------------------------------------------
                  HL-Gap            0.1510024 Eh            4.1090 eV

     #   Z          covCN         q      C6AA      α(0)
     1   7 N        3.483    -0.126    23.730     7.235
     2   6 C        3.732    -0.033    21.256     6.581
     3   6 C        3.807    -0.075    21.921     6.665
     4   6 C        2.968    -0.030    28.753     8.796
     5   6 C        2.785     0.143    24.876     8.170
     6   9 F        0.787    -0.169    10.925     3.904
     7   6 C        2.772     0.146    24.807     8.157
     8   9 F        0.787    -0.131    10.546     3.836
     9   6 C        2.779     0.150    24.733     8.146
    10   9 F        0.788    -0.123    10.469     3.822
    11   6 C        2.772     0.146    24.807     8.157
    12   9 F        0.787    -0.131    10.547     3.836
    13   6 C        2.785     0.143    24.881     8.171
    14   9 F        0.787    -0.170    10.930     3.905
    15   1 H        0.859     0.277     0.786     1.388
    16   1 H        0.859     0.278     0.782     1.385
    17   1 H        0.859     0.278     0.782     1.385
    18   1 H        0.924     0.118     1.631     1.997
    19   1 H        0.924     0.118     1.627     1.995
    20   1 H        0.924     0.096     1.826     2.113
    21   1 H        0.924     0.096     1.826     2.113

Wiberg/Mayer (AO) data.
largest (>0.10) Wiberg bond orders for each atom

     #   Z sym  total        # sym  WBO       # sym  WBO       # sym  WBO
 ---------------------------------------------------------------------------
     1   7 N    3.676 --     2 C    0.933    15 H    0.909    16 H    0.907
                            17 H    0.907
     2   6 C    3.892 --     3 C    0.996    18 H    0.965    19 H    0.965
                             1 N    0.933
     3   6 C    3.980 --     4 C    1.004     2 C    0.996    21 H    0.964
                            20 H    0.964
     4   6 C    3.981 --     5 C    1.362    13 C    1.362     3 C    1.004
     5   6 C    3.903 --     4 C    1.362     7 C    1.337     6 F    0.997
     6   9 F    1.140 --     5 C    0.997
     7   6 C    3.913 --     5 C    1.337     9 C    1.326     8 F    1.028
     8   9 F    1.188 --     7 C    1.028
     9   6 C    3.915 --     7 C    1.326    11 C    1.325    10 F    1.036
    10   9 F    1.202 --     9 C    1.036
    11   6 C    3.913 --    13 C    1.338     9 C    1.325    12 F    1.028
    12   9 F    1.188 --    11 C    1.028
    13   6 C    3.903 --     4 C    1.362    11 C    1.338    14 F    0.996
    14   9 F    1.139 --    13 C    0.996
    15   1 H    0.923 --     1 N    0.909
    16   1 H    0.923 --     1 N    0.907
    17   1 H    0.923 --     1 N    0.907
    18   1 H    0.986 --     2 C    0.965
    19   1 H    0.986 --     2 C    0.965
    20   1 H    0.990 --     3 C    0.964
    21   1 H    0.990 --     3 C    0.964
 ---------------------------------------------------------------------------

molecular dipole:
                 x           y           z       tot (Debye)
 q only:        2.088       0.361      -0.344
   full:        1.855       0.362      -0.314       4.870

           -------------------------------------------------
          | TOTAL ENERGY              -46.803770001830 Eh   |
          | GRADIENT NORM               0.000811962044 Eh/α |
          | HOMO-LUMO GAP               4.108984515810 eV   |
           -------------------------------------------------

 * finished run on 2023/01/23 at 13:51:08.738
