   * xtb version 6.5.1 (fef0646) compiled by 'conda@b96dff2e9fd6' on 2023-01-04
          program call               : xtb init.xyz --opt -c 1 -u 0 -P 16 --input xtb.inp

   ID    Z sym.   atoms
    1    7 N      1, 6
    2    6 C      2-5, 7-18
    3    1 H      19-39

          :  Hamiltonian                  GFN2-xTB          :
 * total energy  :   -50.1187357 Eh     change       -0.1129330E-08 Eh
 * total energy  :   -50.1708172 Eh     change       -0.5208158E-01 Eh
 * total energy  :   -50.2131441 Eh     change       -0.4232688E-01 Eh
 * total energy  :   -50.2338715 Eh     change       -0.2072738E-01 Eh
 * total energy  :   -50.2454883 Eh     change       -0.1161678E-01 Eh
 * total energy  :   -50.2514956 Eh     change       -0.6007328E-02 Eh
 * total energy  :   -50.2541154 Eh     change       -0.2619800E-02 Eh
 * total energy  :   -50.2557565 Eh     change       -0.1641045E-02 Eh
 * total energy  :   -50.2566640 Eh     change       -0.9075083E-03 Eh
 * total energy  :   -50.2574919 Eh     change       -0.8279191E-03 Eh
 * total energy  :   -50.2672570 Eh     change       -0.4123229E-04 Eh
 * total energy  :   -50.2672968 Eh     change       -0.3977904E-04 Eh
 * total energy  :   -50.2673685 Eh     change       -0.7173959E-04 Eh
 * total energy  :   -50.2673831 Eh     change       -0.1450727E-04 Eh
 * total energy  :   -50.2673957 Eh     change       -0.1265495E-04 Eh
 * total energy  :   -50.2674043 Eh     change       -0.8634012E-05 Eh
 * total energy  :   -50.2674129 Eh     change       -0.8523413E-05 Eh
 * total energy  :   -50.2674180 Eh     change       -0.5102352E-05 Eh
 * total energy  :   -50.2674229 Eh     change       -0.4928331E-05 Eh
   *** GEOMETRY OPTIMIZATION CONVERGED AFTER 49 ITERATIONS ***

 final structure:
================
39
 xtb: 6.5.1 (fef0646)
N           14.45928068975632        0.47662393328395        0.97320276444185
C           14.31191394638718        1.50019546522099        2.05879653353425
C           14.00318663793296        2.85440797242137        1.44320701427184
C           13.71334818740122        3.91720255291317        2.50465292176206
C           13.06570557771116        5.15271788533542        1.85681069495763
N           11.81241333923232        4.79346907682504        1.24285321176119
C           11.57021465174129        5.07715121805103       -0.17377558970370
C           10.01031236232409        4.70565016624072       -0.31302104678520
C           10.25635882805111        3.31155459629288       -0.74609481812799
C           10.76082518332738        3.16184235858648       -2.01693945347541
C           12.18894834298309        3.35272793680053       -1.98029749326255
C           12.52006352877904        4.31146380623601       -1.08278155571947
C           10.62097335217460        4.88868546752690        1.95101533167862
C            9.52093010275337        4.86547487610901        1.08733608885843
C            8.23530521603714        4.92782018058682        1.57228715168383
C            8.04646135651944        5.02457692810383        2.94614162121127
C            9.13398243412256        5.04266751324866        3.80139810178854
C           10.43490582067556        4.97041064232575        3.32014336479052
H           14.64466476453308       -0.46000735754565        1.35303869712032
H           15.23153575553712        0.74272782588222        0.34806705414963
H           13.59497023943429        0.44781617565742        0.41406794371059
H           15.23709774357936        1.53156750919043        2.63622762007902
H           13.49876435449243        1.18858709168069        2.71595820235314
H           13.11441655513116        2.77850567471737        0.81068429831502
H           14.83830254799065        3.18469874315749        0.82271735076424
H           14.62819969607144        4.20892734463490        3.01959168025757
H           13.01750096092359        3.51133592657919        3.23931297028401
H           13.73714304498598        5.56489171692472        1.10095601636124
H           12.91522679449459        5.91864797420957        2.62599962155175
H           11.72035548929727        6.15641902592601       -0.35957234780397
H            9.50749784992273        5.31586389341034       -1.06023517776790
H           10.76230154672259        2.74396168323090        0.03596338374023
H           10.23123928653476        3.52579433265553       -2.88592285008318
H           12.89416005991754        2.99567793180776       -2.71977324513811
H           13.53454043180542        4.69200480235835       -1.07462299842211
H            7.39283482698142        4.90974341088163        0.89805358380434
H            7.04710958500185        5.08798808298529        3.34644303981421
H            8.97394865705953        5.11994514987685        4.86616865361943
H           11.26648025166505        4.99485048566992        4.00790165962364

          :  Hamiltonian                  GFN2-xTB          :
         :: total energy             -50.267422897894 Eh    ::
         :: gradient norm              0.000625250559 Eh/a0 ::
         :: HOMO-LUMO gap              1.806118369751 eV    ::
         :: SCC energy               -51.080498670958 Eh    ::
         :: -> dispersion             -0.039897586500 Eh    ::
         :: repulsion energy           0.812259215930 Eh    ::

    * Orbital Energies and Occupations

         #    Occupation            Energy/Eh            Energy/eV
      -------------------------------------------------------------
         1        2.0000           -0.8939109             -24.3246
       ...           ...                  ...                  ...
        35        2.0000           -0.5575168             -15.1708
        36        2.0000           -0.5549754             -15.1016
        37        2.0000           -0.5480965             -14.9145
        38        2.0000           -0.5449023             -14.8275
        39        2.0000           -0.5370043             -14.6126
        40        2.0000           -0.5304306             -14.4338
        41        2.0000           -0.5125012             -13.9459
        42        2.0000           -0.5017198             -13.6525
        43        2.0000           -0.4993189             -13.5872
        44        2.0000           -0.4932220             -13.4213
        45        2.0000           -0.4736052             -12.8875
        46        2.0000           -0.4348042             -11.8316
        47        2.0000           -0.4306325             -11.7181 (HOMO)
        48                         -0.3642588              -9.9120 (LUMO)
        49                         -0.3067579              -8.3473
        50                         -0.2927012              -7.9648
        51                         -0.2838148              -7.7230
        52                         -0.2638890              -7.1808
        53                         -0.1644137              -4.4739
        54                         -0.1608530              -4.3770
        55                         -0.1035037              -2.8165
        56                         -0.1009923              -2.7481
        57                         -0.0974519              -2.6518
        58                         -0.0846326              -2.3030
       ...                                ...                  ...
        93                          0.6184098              16.8278
      -------------------------------------------------------------
                  HL-Gap            0.0663736 Eh            1.8061 eV

     #   Z          covCN         q      C6AA      α(0)
     1   7 N        3.483    -0.128    23.775     7.242
     2   6 C        3.731    -0.033    21.252     6.581
     3   6 C        3.804    -0.084    22.107     6.694
     4   6 C        3.803    -0.072    21.870     6.658
     5   6 C        3.743     0.002    20.625     6.479
     6   7 N        2.763    -0.135    23.923     7.264
     7   6 C        3.893     0.043    19.801     6.326
     8   6 C        3.894    -0.005    20.622     6.455
     9   6 C        3.020    -0.035    28.845     8.810
    10   6 C        2.953    -0.071    29.770     8.949
    11   6 C        2.945    -0.031    28.762     8.796
    12   6 C        2.942    -0.059    29.468     8.903
    13   6 C        2.980     0.054    26.792     8.490
    14   6 C        3.016    -0.017    28.418     8.745
    15   6 C        2.916    -0.033    28.817     8.803
    16   6 C        2.922    -0.040    28.997     8.831
    17   6 C        2.923    -0.031    28.763     8.795
    18   6 C        2.914    -0.062    29.547     8.913
    19   1 H        0.859     0.269     0.813     1.413
    20   1 H        0.859     0.272     0.804     1.405
    21   1 H        0.859     0.275     0.793     1.395
    22   1 H        0.924     0.105     1.742     2.064
    23   1 H        0.924     0.107     1.718     2.050
    24   1 H        0.924     0.078     2.004     2.214
    25   1 H        0.924     0.059     2.211     2.325
    26   1 H        0.925     0.054     2.272     2.357
    27   1 H        0.924     0.060     2.204     2.322
    28   1 H        0.924     0.046     2.365     2.405
    29   1 H        0.924     0.054     2.274     2.358
    30   1 H        0.922     0.030     2.580     2.512
    31   1 H        0.925     0.052     2.291     2.367
    32   1 H        0.924     0.018     2.766     2.601
    33   1 H        0.926     0.050     2.319     2.381
    34   1 H        0.925     0.033     2.545     2.495
    35   1 H        0.925     0.033     2.548     2.496
    36   1 H        0.926     0.040     2.450     2.448
    37   1 H        0.926     0.041     2.431     2.438
    38   1 H        0.926     0.039     2.467     2.456
    39   1 H        0.926     0.023     2.682     2.561

Wiberg/Mayer (AO) data.
largest (>0.10) Wiberg bond orders for each atom

     #   Z sym  total        # sym  WBO       # sym  WBO       # sym  WBO
 ---------------------------------------------------------------------------
     1   7 N    3.675 --     2 C    0.920    19 H    0.913    20 H    0.910
                            21 H    0.908
     2   6 C    3.884 --     3 C    1.008    22 H    0.967    23 H    0.966
                             1 N    0.920
     3   6 C    3.978 --     2 C    1.008     4 C    0.997    25 H    0.973
                            24 H    0.957
     4   6 C    3.988 --     3 C    0.997     5 C    0.992    26 H    0.977
                            27 H    0.973
     5   6 C    3.982 --     6 N    1.006     4 C    0.992    28 H    0.970
                            29 H    0.963
     6   7 N    3.332 --    13 C    1.103     5 C    1.006     7 C    0.969
     7   6 C    3.976 --    12 C    1.027     6 N    0.969    30 H    0.947
                             8 C    0.889
     8   6 C    3.986 --     9 C    1.034    14 C    1.004    31 H    0.962
                             7 C    0.889
     9   6 C    3.959 --    10 C    1.719     8 C    1.034    32 H    0.961
                            12 C    0.129
    10   6 C    3.952 --     9 C    1.719    11 C    1.150    33 H    0.941
    11   6 C    3.979 --    12 C    1.773    10 C    1.150    34 H    0.962
    12   6 C    3.983 --    11 C    1.773     7 C    1.027    35 H    0.960
                             9 C    0.129
    13   6 C    3.970 --    18 C    1.383    14 C    1.305     6 N    1.103
    14   6 C    3.983 --    15 C    1.455    13 C    1.305     8 C    1.004
                            17 C    0.104
    15   6 C    3.990 --    14 C    1.455    16 C    1.408    36 H    0.969
    16   6 C    3.988 --    17 C    1.452    15 C    1.408    37 H    0.971
    17   6 C    3.990 --    16 C    1.452    18 C    1.425    38 H    0.971
                            14 C    0.104
    18   6 C    3.985 --    17 C    1.425    13 C    1.383    39 H    0.966
    19   1 H    0.927 --     1 N    0.913
    20   1 H    0.926 --     1 N    0.910
    21   1 H    0.924 --     1 N    0.908
    22   1 H    0.989 --     2 C    0.967
    23   1 H    0.988 --     2 C    0.966
    24   1 H    0.994 --     3 C    0.957
    25   1 H    0.996 --     3 C    0.973
    26   1 H    0.997 --     4 C    0.977
    27   1 H    0.996 --     4 C    0.973
    28   1 H    0.997 --     5 C    0.970
    29   1 H    0.996 --     5 C    0.963
    30   1 H    0.999 --     7 C    0.947
    31   1 H    0.997 --     8 C    0.962
    32   1 H    1.000 --     9 C    0.961
    33   1 H    0.997 --    10 C    0.941
    34   1 H    0.998 --    11 C    0.962
    35   1 H    0.999 --    12 C    0.960
    36   1 H    0.998 --    15 C    0.969
    37   1 H    0.998 --    16 C    0.971
    38   1 H    0.998 --    17 C    0.971
    39   1 H    0.999 --    18 C    0.966
 ---------------------------------------------------------------------------

molecular dipole:
                 x           y           z       tot (Debye)
 q only:       27.035       2.165       2.162
   full:       27.239       2.280       1.954      69.653

           -------------------------------------------------
          | TOTAL ENERGY              -50.267422897894 Eh   |
          | GRADIENT NORM               0.000625250559 Eh/α |
          | HOMO-LUMO GAP               1.806118369751 eV   |
           -------------------------------------------------

 * finished run on 2023/01/23 at 20:49:26.775
