   * xtb version 6.5.1 (fef0646) compiled by 'conda@b96dff2e9fd6' on 2023-01-04
          program call               : xtb init.xyz --opt -c 1 -u 0 -P 16 --alpb water

   ID    Z sym.   atoms
    1    7 N      1, 6
    2    6 C      2-5, 7-18
    3    1 H      19-39

      * Solvation model:               ALPB
        Solvent                        water
        Solvent mass                       1.8000E+01 g/mol
          :  Hamiltonian                  GFN2-xTB          :
 * total energy  :   -50.3326855 Eh     change       -0.3635989E-09 Eh
 * total energy  :   -50.3563903 Eh     change       -0.2370474E-01 Eh
 * total energy  :   -50.3656379 Eh     change       -0.9247589E-02 Eh
 * total energy  :   -50.3698432 Eh     change       -0.4205301E-02 Eh
 * total energy  :   -50.3722738 Eh     change       -0.2430651E-02 Eh
 * total energy  :   -50.3735696 Eh     change       -0.1295807E-02 Eh
 * total energy  :   -50.3743662 Eh     change       -0.7965823E-03 Eh
 * total energy  :   -50.3750410 Eh     change       -0.6747557E-03 Eh
 * total energy  :   -50.3757673 Eh     change       -0.7263172E-03 Eh
 * total energy  :   -50.3764909 Eh     change       -0.7236034E-03 Eh
 * total energy  :   -50.3808499 Eh     change       -0.5716393E-04 Eh
 * total energy  :   -50.3808907 Eh     change       -0.4085622E-04 Eh
 * total energy  :   -50.3809521 Eh     change       -0.6133820E-04 Eh
 * total energy  :   -50.3809917 Eh     change       -0.3965025E-04 Eh
 * total energy  :   -50.3810152 Eh     change       -0.2346315E-04 Eh
 * total energy  :   -50.3810263 Eh     change       -0.1112477E-04 Eh
 * total energy  :   -50.3810354 Eh     change       -0.9112937E-05 Eh
 * total energy  :   -50.3810407 Eh     change       -0.5270088E-05 Eh
 * total energy  :   -50.3810448 Eh     change       -0.4089571E-05 Eh
   *** GEOMETRY OPTIMIZATION CONVERGED AFTER 36 ITERATIONS ***

 final structure:
================
39
 xtb: 6.5.1 (fef0646)
N           14.77778626672197        0.53905930652456       -1.40780528708425
C           14.43433937540587        0.23148837501654       -2.81776628919915
C           13.98131238216897       -1.21716462540344       -2.95492876940647
C           13.62991545324523       -1.53810422845514       -4.40635370008038
C           13.04013797230109       -2.94507537482252       -4.55634161054879
N           11.76438738688419       -3.05367990324466       -3.88163273263760
C           11.54510500442108       -4.10011416758691       -2.88305417371692
C            9.96021599563823       -3.99804096162871       -2.63189080709463
C           10.06848072333339       -3.13840686123603       -1.43002075301858
C           10.57712275228563       -3.75315170894718       -0.31206661305228
C           12.02309333496608       -3.71448016481250       -0.38398634343863
C           12.42996347198261       -3.90986923696018       -1.65611517516015
C           10.58804980211794       -2.77020763434861       -4.53889971358181
C            9.48281253586455       -3.31355933910709       -3.86891087988494
C            8.20469398512026       -3.12997128820653       -4.33874952852855
C            8.01967784672974       -2.39905944105819       -5.50838564170230
C            9.10885116174254       -1.86252075772252       -6.17259312273967
C           10.40248581480335       -2.03494283997949       -5.70091619797801
H           15.08214536135542        1.51436279609378       -1.31031516089554
H           15.53310193098199       -0.07725205133992       -1.08512357298807
H           13.95930288255140        0.38786260218467       -0.80664780934554
H           15.30780696998890        0.40615554496076       -3.44567158462728
H           13.63567949084246        0.89709992086996       -3.14404449196047
H           13.09806990887756       -1.39978679945438       -2.34129832696568
H           14.77292468486588       -1.89197029529771       -2.62743935863352
H           14.51831883044175       -1.46864466729933       -5.03513009216625
H           12.89798931286151       -0.81701857146845       -4.77131688100536
H           13.72444912032606       -3.68313687907028       -4.13413567828146
H           12.91790140916907       -3.17653336655420       -5.62196324237007
H           11.79219118017476       -5.08323089144150       -3.32731261097564
H            9.51223299904400       -4.97215006521968       -2.43816093244075
H           10.49908340348323       -2.17082278565242       -1.67761338970950
H           10.12240243470917       -4.64880994545075        0.09394615479302
H           12.70286822812557       -3.75259793809741        0.45439785717337
H           13.48078048807239       -4.07306666913689       -1.85355544959533
H            7.35934992830402       -3.55234019851159       -3.81503138529805
H            7.02361351085893       -2.25311359571363       -5.89875219189452
H            8.95065573432835       -1.29997801085591       -7.08156507609159
H           11.23204092490674       -1.61374728156932       -6.24563943786776

          :  Hamiltonian                  GFN2-xTB          :
         :: total energy             -50.381044777979 Eh    ::
         :: gradient norm              0.000588786249 Eh/a0 ::
         :: HOMO-LUMO gap              1.898698779664 eV    ::
         :: SCC energy               -51.196898290470 Eh    ::
         :: -> dispersion             -0.039375122573 Eh    ::
         :: -> Gsolv                  -0.124696441859 Eh    ::
         :: repulsion energy           0.815137688162 Eh    ::

    * Orbital Energies and Occupations

         #    Occupation            Energy/Eh            Energy/eV
      -------------------------------------------------------------
         1        2.0000           -0.6908328             -18.7985
       ...           ...                  ...                  ...
        35        2.0000           -0.4598299             -12.5126
        36        2.0000           -0.4519480             -12.2981
        37        2.0000           -0.4473433             -12.1728
        38        2.0000           -0.4419674             -12.0265
        39        2.0000           -0.4363109             -11.8726
        40        2.0000           -0.4320541             -11.7568
        41        2.0000           -0.4276374             -11.6366
        42        2.0000           -0.4164653             -11.3326
        43        2.0000           -0.4141279             -11.2690
        44        2.0000           -0.4065916             -11.0639
        45        2.0000           -0.3926883             -10.6856
        46        2.0000           -0.3452258              -9.3941
        47        2.0000           -0.3374458              -9.1824 (HOMO)
        48                         -0.2676699              -7.2837 (LUMO)
        49                         -0.2139572              -5.8221
        50                         -0.2081515              -5.6641
        51                         -0.2023448              -5.5061
        52                         -0.0831795              -2.2634
        53                         -0.0496599              -1.3513
        54                         -0.0035256              -0.0959
        55                          0.0079871               0.2173
        56                          0.0489064               1.3308
        57                          0.0692700               1.8849
        58                          0.0756365               2.0582
       ...                                ...                  ...
        93                          0.6987539              19.0141
      -------------------------------------------------------------
                  HL-Gap            0.0697759 Eh            1.8987 eV

     #   Z          covCN         q      C6AA      α(0)
     1   7 N        3.485    -0.162    24.492     7.350
     2   6 C        3.733    -0.038    21.352     6.595
     3   6 C        3.803    -0.084    22.109     6.694
     4   6 C        3.804    -0.076    21.956     6.671
     5   6 C        3.742    -0.004    20.722     6.494
     6   7 N        2.762    -0.113    23.466     7.195
     7   6 C        3.888     0.041    19.834     6.331
     8   6 C        3.894    -0.009    20.692     6.466
     9   6 C        3.016    -0.050    29.225     8.868
    10   6 C        2.957    -0.074    29.857     8.962
    11   6 C        2.947    -0.027    28.684     8.784
    12   6 C        2.946    -0.053    29.305     8.879
    13   6 C        2.980     0.058    26.689     8.474
    14   6 C        3.015    -0.023    28.567     8.767
    15   6 C        2.915    -0.042    29.051     8.838
    16   6 C        2.921    -0.054    29.334     8.882
    17   6 C        2.922    -0.041    29.008     8.832
    18   6 C        2.914    -0.068    29.703     8.937
    19   1 H        0.859     0.316     0.668     1.280
    20   1 H        0.859     0.310     0.685     1.296
    21   1 H        0.859     0.308     0.689     1.300
    22   1 H        0.925     0.109     1.708     2.044
    23   1 H        0.925     0.107     1.721     2.052
    24   1 H        0.924     0.069     2.092     2.262
    25   1 H        0.924     0.069     2.102     2.267
    26   1 H        0.924     0.055     2.261     2.351
    27   1 H        0.924     0.054     2.266     2.354
    28   1 H        0.924     0.054     2.272     2.357
    29   1 H        0.924     0.034     2.537     2.491
    30   1 H        0.922     0.021     2.720     2.579
    31   1 H        0.925     0.034     2.536     2.490
    32   1 H        0.925     0.045     2.385     2.415
    33   1 H        0.925     0.021     2.712     2.575
    34   1 H        0.926     0.059     2.209     2.324
    35   1 H        0.925     0.066     2.135     2.285
    36   1 H        0.926     0.018     2.760     2.598
    37   1 H        0.926     0.013     2.836     2.634
    38   1 H        0.926     0.022     2.696     2.568
    39   1 H        0.926     0.037     2.486     2.466

Wiberg/Mayer (AO) data.
largest (>0.10) Wiberg bond orders for each atom

     #   Z sym  total        # sym  WBO       # sym  WBO       # sym  WBO
 ---------------------------------------------------------------------------
     1   7 N    3.653 --     2 C    0.967    21 H    0.890    20 H    0.889
                            19 H    0.887
     2   6 C    3.927 --     3 C    1.011     1 N    0.967    23 H    0.966
                            22 H    0.966
     3   6 C    3.990 --     2 C    1.011     4 C    1.005    25 H    0.972
                            24 H    0.968
     4   6 C    3.992 --     3 C    1.005     5 C    0.996    26 H    0.974
                            27 H    0.973
     5   6 C    3.974 --     4 C    0.996     6 N    0.990    28 H    0.969
                            29 H    0.967
     6   7 N    3.370 --    13 C    1.146     5 C    0.990     7 C    0.972
     7   6 C    3.976 --    12 C    1.020     6 N    0.972    30 H    0.948
                             8 C    0.898
     8   6 C    3.991 --     9 C    1.030    14 C    1.006    31 H    0.963
                             7 C    0.898
     9   6 C    3.960 --    10 C    1.746     8 C    1.030    32 H    0.962
                            12 C    0.115
    10   6 C    3.948 --     9 C    1.746    11 C    1.121    33 H    0.946
    11   6 C    3.978 --    12 C    1.807    10 C    1.121    34 H    0.959
    12   6 C    3.982 --    11 C    1.807     7 C    1.020    35 H    0.955
                             9 C    0.115
    13   6 C    3.977 --    18 C    1.366    14 C    1.291     6 N    1.146
    14   6 C    3.984 --    15 C    1.464    13 C    1.291     8 C    1.006
                            17 C    0.101
    15   6 C    3.991 --    14 C    1.464    16 C    1.400    36 H    0.970
    16   6 C    3.987 --    17 C    1.449    15 C    1.400    37 H    0.972
    17   6 C    3.991 --    16 C    1.449    18 C    1.431    38 H    0.972
                            14 C    0.101
    18   6 C    3.984 --    17 C    1.431    13 C    1.366    39 H    0.966
    19   1 H    0.900 --     1 N    0.887
    20   1 H    0.904 --     1 N    0.889
    21   1 H    0.905 --     1 N    0.890
    22   1 H    0.988 --     2 C    0.966
    23   1 H    0.989 --     2 C    0.966
    24   1 H    0.995 --     3 C    0.968
    25   1 H    0.995 --     3 C    0.972
    26   1 H    0.996 --     4 C    0.974
    27   1 H    0.997 --     4 C    0.973
    28   1 H    0.996 --     5 C    0.969
    29   1 H    0.998 --     5 C    0.967
    30   1 H    1.000 --     7 C    0.948
    31   1 H    0.999 --     8 C    0.963
    32   1 H    0.998 --     9 C    0.962
    33   1 H    0.999 --    10 C    0.946
    34   1 H    0.995 --    11 C    0.959
    35   1 H    0.995 --    12 C    0.955
    36   1 H    0.999 --    15 C    0.970
    37   1 H    0.999 --    16 C    0.972
    38   1 H    0.999 --    17 C    0.972
    39   1 H    0.998 --    18 C    0.966
 ---------------------------------------------------------------------------

molecular dipole:
                 x           y           z       tot (Debye)
 q only:       29.148       0.758      -2.712
   full:       28.976       0.368      -2.882      74.020

           -------------------------------------------------
          | TOTAL ENERGY              -50.381044777979 Eh   |
          | GRADIENT NORM               0.000588786249 Eh/α |
          | HOMO-LUMO GAP               1.898698779664 eV   |
           -------------------------------------------------

 * finished run on 2023/01/24 at 16:43:57.089
