   * xtb version 6.5.1 (fef0646) compiled by 'conda@b96dff2e9fd6' on 2023-01-04
          program call               : xtb init.xyz --opt -c 1 -u 0 -P 16

   ID    Z sym.   atoms
    1    7 N      1
    2    6 C      2-10
    3    1 H      11-22

          :  Hamiltonian                  GFN2-xTB          :
 * total energy  :   -27.8315067 Eh     change       -0.4161329E-09 Eh
 * total energy  :   -27.8338852 Eh     change       -0.2378465E-02 Eh
 * total energy  :   -27.8343309 Eh     change       -0.4456934E-03 Eh
 * total energy  :   -27.8344939 Eh     change       -0.1630087E-03 Eh
 * total energy  :   -27.8346365 Eh     change       -0.1426066E-03 Eh
 * total energy  :   -27.8347396 Eh     change       -0.1030892E-03 Eh
 * total energy  :   -27.8348568 Eh     change       -0.1172038E-03 Eh
 * total energy  :   -27.8349594 Eh     change       -0.1026334E-03 Eh
 * total energy  :   -27.8350143 Eh     change       -0.5490322E-04 Eh
 * total energy  :   -27.8350410 Eh     change       -0.2668199E-04 Eh
 * total energy  :   -27.8350727 Eh     change       -0.1060770E-04 Eh
 * total energy  :   -27.8350808 Eh     change       -0.8183882E-05 Eh
 * total energy  :   -27.8350869 Eh     change       -0.6073077E-05 Eh
 * total energy  :   -27.8350879 Eh     change       -0.1037701E-05 Eh
 * total energy  :   -27.8350962 Eh     change       -0.8267425E-05 Eh
 * total energy  :   -27.8351022 Eh     change       -0.6012929E-05 Eh
 * total energy  :   -27.8351073 Eh     change       -0.5079504E-05 Eh
 * total energy  :   -27.8351138 Eh     change       -0.6471677E-05 Eh
 * total energy  :   -27.8351172 Eh     change       -0.3392225E-05 Eh
   *** GEOMETRY OPTIMIZATION CONVERGED AFTER 20 ITERATIONS ***

 final structure:
================
22
 xtb: 6.5.1 (fef0646)
N            1.70596418675516       -0.19029217268286       -1.23676143718432
C            2.59764738732468       -0.13685421481224       -0.00723552760583
C            3.03186107451067        1.26665084741716        0.23744970735838
C            4.27741347759628        1.68786017807266       -0.00837807057827
C            4.81301934440113        3.01733495766043        0.19770523182460
C            4.10049710254844        4.03904696522484        0.83393708308948
C            4.66703502056780        5.28616971008731        1.00433665507704
C            5.94969241844804        5.54222323403451        0.54276996750688
C            6.66902639234603        4.53964688446018       -0.08825944288204
C            6.10868772051826        3.28900439327341       -0.25548133609250
H            1.38463663962448       -1.14644220462784       -1.43269787273533
H            2.22670247971073        0.16589440865381       -2.04891473252232
H            0.88841818826843        0.41632451539035       -1.09160192518184
H            3.45324626903364       -0.78766492406228       -0.18935923208648
H            2.01683953270807       -0.52842503091544        0.82945960715274
H            2.28163135236153        1.93065272416226        0.63772104022577
H            4.99203011949002        0.97342865493417       -0.40274127714089
H            3.10704331678616        3.85481623182108        1.21229241607618
H            4.10903076682737        6.06410310382799        1.50262727922873
H            6.38785065306895        6.51853727063846        0.67953406776191
H            7.66887165170520        4.73273996916018       -0.44512801880911
H            6.67471490539893        2.50918449828202       -0.74448418248280

          :  Hamiltonian                  GFN2-xTB          :
         :: total energy             -27.835117169984 Eh    ::
         :: gradient norm              0.000342478520 Eh/a0 ::
         :: HOMO-LUMO gap              3.140700108531 eV    ::
         :: SCC energy               -28.342302179398 Eh    ::
         :: -> dispersion             -0.015578598623 Eh    ::
         :: repulsion energy           0.507229821392 Eh    ::

    * Orbital Energies and Occupations

         #    Occupation            Energy/Eh            Energy/eV
      -------------------------------------------------------------
         1        2.0000           -0.8857146             -24.1015
       ...           ...                  ...                  ...
        14        2.0000           -0.6429551             -17.4957
        15        2.0000           -0.6313211             -17.1791
        16        2.0000           -0.6047233             -16.4554
        17        2.0000           -0.6003902             -16.3374
        18        2.0000           -0.5953031             -16.1990
        19        2.0000           -0.5844475             -15.9036
        20        2.0000           -0.5784274             -15.7398
        21        2.0000           -0.5725621             -15.5802
        22        2.0000           -0.5596575             -15.2291
        23        2.0000           -0.5283818             -14.3780
        24        2.0000           -0.5218729             -14.2009
        25        2.0000           -0.5078914             -13.8204
        26        2.0000           -0.5024102             -13.6713 (HOMO)
        27                         -0.3869916             -10.5306 (LUMO)
        28                         -0.3246502              -8.8342
        29                         -0.2981852              -8.1140
        30                         -0.2449145              -6.6645
        31                         -0.1855610              -5.0494
        32                         -0.1557243              -4.2375
        33                         -0.0885749              -2.4102
        34                         -0.0850213              -2.3135
        35                         -0.0464286              -1.2634
        36                         -0.0192360              -0.5234
        37                          0.0106613               0.2901
       ...                                ...                  ...
        52                          0.5747429              15.6396
      -------------------------------------------------------------
                  HL-Gap            0.1154186 Eh            3.1407 eV

     #   Z          covCN         q      C6AA      α(0)
     1   7 N        3.481    -0.134    23.885     7.259
     2   6 C        3.733    -0.027    21.143     6.563
     3   6 C        2.890    -0.083    30.081     8.992
     4   6 C        2.903    -0.020    28.505     8.754
     5   6 C        2.971     0.009    27.806     8.649
     6   6 C        2.922    -0.028    28.703     8.786
     7   6 C        2.917    -0.022    28.559     8.763
     8   6 C        2.920    -0.014    28.374     8.735
     9   6 C        2.916    -0.022    28.548     8.762
    10   6 C        2.928    -0.026    28.657     8.779
    11   1 H        0.859     0.265     0.828     1.426
    12   1 H        0.859     0.269     0.815     1.414
    13   1 H        0.859     0.270     0.811     1.411
    14   1 H        0.924     0.102     1.769     2.080
    15   1 H        0.924     0.103     1.762     2.076
    16   1 H        0.926     0.058     2.225     2.333
    17   1 H        0.925     0.053     2.286     2.364
    18   1 H        0.926     0.040     2.454     2.450
    19   1 H        0.926     0.053     2.281     2.362
    20   1 H        0.926     0.058     2.225     2.333
    21   1 H        0.926     0.055     2.262     2.352
    22   1 H        0.926     0.044     2.399     2.422

Wiberg/Mayer (AO) data.
largest (>0.10) Wiberg bond orders for each atom

     #   Z sym  total        # sym  WBO       # sym  WBO       # sym  WBO
 ---------------------------------------------------------------------------
     1   7 N    3.666 --    11 H    0.915    12 H    0.913    13 H    0.912
                             2 C    0.889
     2   6 C    3.884 --     3 C    1.031    14 H    0.966    15 H    0.963
                             1 N    0.889
     3   6 C    3.962 --     4 C    1.799     2 C    1.031    16 H    0.960
     4   6 C    3.983 --     3 C    1.799     5 C    1.122    17 H    0.960
     5   6 C    3.988 --    10 C    1.358     6 C    1.355     4 C    1.122
     6   6 C    3.992 --     7 C    1.470     5 C    1.355    18 H    0.966
                             9 C    0.103
     7   6 C    3.991 --     6 C    1.470     8 C    1.422    19 H    0.969
                            10 C    0.101
     8   6 C    3.985 --     9 C    1.429     7 C    1.422    20 H    0.969
     9   6 C    3.990 --    10 C    1.462     8 C    1.429    21 H    0.969
                             6 C    0.103
    10   6 C    3.987 --     9 C    1.462     5 C    1.358    22 H    0.968
                             7 C    0.101
    11   1 H    0.929 --     1 N    0.915
    12   1 H    0.928 --     1 N    0.913
    13   1 H    0.927 --     1 N    0.912
    14   1 H    0.990 --     2 C    0.966
    15   1 H    0.988 --     2 C    0.963
    16   1 H    0.997 --     3 C    0.960
    17   1 H    0.997 --     4 C    0.960
    18   1 H    0.998 --     6 C    0.966
    19   1 H    0.997 --     7 C    0.969
    20   1 H    0.996 --     8 C    0.969
    21   1 H    0.997 --     9 C    0.969
    22   1 H    0.998 --    10 C    0.968
 ---------------------------------------------------------------------------

molecular dipole:
                 x           y           z       tot (Debye)
 q only:        4.497       0.991      -1.757
   full:        4.324       0.846      -1.927      12.224

           -------------------------------------------------
          | TOTAL ENERGY              -27.835117169984 Eh   |
          | GRADIENT NORM               0.000342478520 Eh/α |
          | HOMO-LUMO GAP               3.140700108531 eV   |
           -------------------------------------------------

 * finished run on 2023/01/23 at 13:40:53.046
