   * xtb version 6.5.1 (fef0646) compiled by 'conda@b96dff2e9fd6' on 2023-01-04
          program call               : xtb init.xyz --opt -c 0 -u 0 -P 16 --input xtb.inp

   ID    Z sym.   atoms
    1    7 N      1
    2    6 C      2, 3, 5-24
    3    8 O      4
    4   17 Cl     25
    5    1 H      26-43

          :  Hamiltonian                  GFN2-xTB          :
 * total energy  :   -67.8217871 Eh     change       -0.4996110E-09 Eh
 * total energy  :   -67.8339323 Eh     change       -0.1214522E-01 Eh
 * total energy  :   -67.8404023 Eh     change       -0.6469908E-02 Eh
 * total energy  :   -67.8432484 Eh     change       -0.2846109E-02 Eh
 * total energy  :   -67.8471705 Eh     change       -0.3922125E-02 Eh
 * total energy  :   -67.8497863 Eh     change       -0.2615802E-02 Eh
 * total energy  :   -67.8507548 Eh     change       -0.9684672E-03 Eh
 * total energy  :   -67.8512127 Eh     change       -0.4579413E-03 Eh
 * total energy  :   -67.8513676 Eh     change       -0.1548918E-03 Eh
 * total energy  :   -67.8515212 Eh     change       -0.1536271E-03 Eh
 * total energy  :   -67.8524599 Eh     change       -0.1772331E-04 Eh
 * total energy  :   -67.8524738 Eh     change       -0.1388105E-04 Eh
 * total energy  :   -67.8524905 Eh     change       -0.1676874E-04 Eh
 * total energy  :   -67.8525055 Eh     change       -0.1495284E-04 Eh
 * total energy  :   -67.8525194 Eh     change       -0.1386906E-04 Eh
 * total energy  :   -67.8525323 Eh     change       -0.1293410E-04 Eh
 * total energy  :   -67.8525409 Eh     change       -0.8581070E-05 Eh
 * total energy  :   -67.8525465 Eh     change       -0.5649707E-05 Eh
 * total energy  :   -67.8525513 Eh     change       -0.4753945E-05 Eh
   *** GEOMETRY OPTIMIZATION CONVERGED AFTER 31 ITERATIONS ***

 final structure:
================
43
 xtb: 6.5.1 (fef0646)
N            1.04364825088030        2.08860076632882       -0.13203074423430
C            2.07481605529093        1.66276117778608       -1.07281329866959
C            3.39958283674727        1.43688774282875       -0.33087095108606
O            4.42174924388710        1.02653131080097       -1.20503064800592
C            5.01442120596497        1.93487974558166       -2.03210891581695
C            4.81534429257496        3.29432309435626       -2.00298370600120
C            5.50434676305405        4.12871005449357       -2.88104661406745
C            6.39406092576225        3.64689966104937       -3.82218044143635
C            6.59679756186302        2.24156781835394       -3.89431627284390
C            7.46723949298456        1.66978828612251       -4.86149552553935
C            7.66696777355167        0.29943031946058       -4.85095782947987
C            7.01628404018104       -0.52955836170308       -3.94028250756180
C            6.14597492739713       -0.00128400419769       -3.02643685681178
C            5.92157750462179        1.38673209841104       -2.98506554256867
C            7.12143554661002        4.52405200595374       -4.72880052476479
C            7.03129194537476        5.90393936466929       -4.65457862751227
C            7.71219641785103        6.73392869644283       -5.54422686896125
C            8.48949373493604        6.19584123802230       -6.53169787334428
C            8.62537207672487        4.79845934521527       -6.64564820229962
C            9.42228248000828        4.23682960037466       -7.66221322941770
C            9.54727805654561        2.87976534543887       -7.76877233891785
C            8.90513642704413        2.04088658307730       -6.85854762533736
C            8.12167353749634        2.54039053675143       -5.83190830149292
C            7.95161792688329        3.94764816736210       -5.72813674386080
Cl           0.71447895702014        0.11040722686161        2.04056444421210
H            0.14926025537143        2.18994879451909       -0.59834829258286
H            1.28704782471298        2.97601810446866        0.29597691190412
H            0.86098992973312        1.00888107908412        1.03751617394908
H            2.23274077197237        2.38593000873621       -1.88572952710297
H            1.75850068498604        0.71759423687652       -1.51915169477514
H            3.27998817024343        0.61732534398579        0.38150672745413
H            3.68673048483342        2.33784411548869        0.22606721419555
H            4.13845985842342        3.75137777891810       -1.29767921262391
H            5.30977900135442        5.18608737170518       -2.80265255349246
H            8.34205813570554       -0.16032552051903       -5.55445865961478
H            7.20066954032574       -1.59346054378043       -3.96657413003980
H            5.62379259248368       -0.62866927959868       -2.32244339469360
H            6.42694179844623        6.37341340646179       -3.89517390566150
H            7.61377500290264        7.80556265351790       -5.44742226033447
H            9.01155758072811        6.82882391081520       -7.23444132539896
H            9.92541946325489        4.89691569778806       -8.35383353903037
H           10.14820761110156        2.44488823702343       -8.55429181011733
H            9.03518331214099        0.97787678467115       -6.98151097622252

          :  Hamiltonian                  GFN2-xTB          :
         :: total energy             -67.852551275567 Eh    ::
         :: gradient norm              0.000335687710 Eh/a0 ::
         :: HOMO-LUMO gap              1.843127765811 eV    ::
         :: SCC energy               -68.949328005727 Eh    ::
         :: -> dispersion             -0.052966000551 Eh    ::
         :: repulsion energy           1.096991781057 Eh    ::

    * Orbital Energies and Occupations

         #    Occupation            Energy/Eh            Energy/eV
      -------------------------------------------------------------
         1        2.0000           -1.0264120             -27.9301
       ...           ...                  ...                  ...
        50        2.0000           -0.4341911             -11.8149
        51        2.0000           -0.4332752             -11.7900
        52        2.0000           -0.4268003             -11.6138
        53        2.0000           -0.4118868             -11.2080
        54        2.0000           -0.4062078             -11.0535
        55        2.0000           -0.4052472             -11.0273
        56        2.0000           -0.4036842             -10.9848
        57        2.0000           -0.4035514             -10.9812
        58        2.0000           -0.4035220             -10.9804
        59        2.0000           -0.4024783             -10.9520
        60        2.0000           -0.3997346             -10.8773
        61        2.0000           -0.3938674             -10.7177
        62        2.0000           -0.3521875              -9.5835 (HOMO)
        63                         -0.2844538              -7.7404 (LUMO)
        64                         -0.2312276              -6.2920
        65                         -0.2255671              -6.1380
        66                         -0.2243315              -6.1044
        67                         -0.2222079              -6.0466
        68                         -0.1561752              -4.2497
        69                         -0.1554277              -4.2294
        70                         -0.1163248              -3.1654
        71                         -0.0745135              -2.0276
        72                         -0.0686249              -1.8674
        73                         -0.0224470              -0.6108
       ...                                ...                  ...
       123                          0.7382642              20.0892
      -------------------------------------------------------------
                  HL-Gap            0.0677337 Eh            1.8431 eV

     #   Z          covCN         q      C6AA      α(0)
     1   7 N        2.663    -0.316    28.125     7.876
     2   6 C        3.729    -0.000    20.680     6.492
     3   6 C        3.692     0.065    19.666     6.345
     4   8 O        1.705    -0.264    18.377     5.788
     5   6 C        2.861     0.135    25.053     8.204
     6   6 C        2.911    -0.074    29.836     8.957
     7   6 C        2.923    -0.040    29.002     8.831
     8   6 C        2.973    -0.005    28.145     8.702
     9   6 C        2.994     0.003    27.946     8.672
    10   6 C        2.974     0.007    27.869     8.659
    11   6 C        2.923    -0.036    28.886     8.814
    12   6 C        2.914    -0.031    28.783     8.797
    13   6 C        2.921    -0.032    28.789     8.799
    14   6 C        2.987    -0.006    28.168     8.706
    15   6 C        2.973     0.007    27.870     8.660
    16   6 C        2.923    -0.039    28.976     8.827
    17   6 C        2.913    -0.031    28.781     8.797
    18   6 C        2.921    -0.039    28.958     8.825
    19   6 C        2.986     0.012    27.739     8.639
    20   6 C        2.921    -0.037    28.933     8.821
    21   6 C        2.913    -0.031    28.775     8.796
    22   6 C        2.923    -0.038    28.938     8.822
    23   6 C        2.973     0.006    27.891     8.663
    24   6 C        2.995     0.003    27.942     8.671
    25  17 Cl       0.840    -0.463   114.346    16.359
    26   1 H        0.860     0.173     1.257     1.756
    27   1 H        0.860     0.166     1.295     1.783
    28   1 H        0.872     0.332     0.625     1.238
    29   1 H        0.923     0.036     2.505     2.475
    30   1 H        0.924     0.064     2.157     2.297
    31   1 H        0.924     0.078     1.997     2.210
    32   1 H        0.924     0.039     2.464     2.455
    33   1 H        0.926     0.027     2.630     2.536
    34   1 H        0.926     0.035     2.518     2.481
    35   1 H        0.926     0.035     2.516     2.481
    36   1 H        0.926     0.033     2.547     2.496
    37   1 H        0.926     0.050     2.325     2.384
    38   1 H        0.926     0.029     2.598     2.520
    39   1 H        0.926     0.028     2.613     2.528
    40   1 H        0.926     0.030     2.587     2.515
    41   1 H        0.926     0.030     2.579     2.511
    42   1 H        0.926     0.029     2.598     2.521
    43   1 H        0.926     0.032     2.559     2.501

Wiberg/Mayer (AO) data.
largest (>0.10) Wiberg bond orders for each atom

     #   Z sym  total        # sym  WBO       # sym  WBO       # sym  WBO
 ---------------------------------------------------------------------------
     1   7 N    3.205 --     2 C    1.012    27 H    0.958    26 H    0.957
                            28 H    0.177
     2   6 C    3.972 --     1 N    1.012     3 C    0.989    30 H    0.974
                            29 H    0.969
     3   6 C    3.947 --     2 C    0.989     4 O    0.981    31 H    0.966
                            32 H    0.963
     4   8 O    2.235 --     5 C    1.060     3 C    0.981
     5   6 C    3.907 --     6 C    1.449    14 C    1.206     4 O    1.060
     6   6 C    3.984 --     5 C    1.449     7 C    1.363    33 H    0.963
     7   6 C    3.971 --     8 C    1.444     6 C    1.363    34 H    0.962
     8   6 C    3.987 --     7 C    1.444     9 C    1.238    15 C    1.103
     9   6 C    3.988 --    14 C    1.269    10 C    1.251     8 C    1.238
    10   6 C    3.988 --    11 C    1.441     9 C    1.251    23 C    1.099
                            13 C    0.101
    11   6 C    3.973 --    10 C    1.441    12 C    1.369    35 H    0.962
    12   6 C    3.991 --    13 C    1.516    11 C    1.369    36 H    0.970
    13   6 C    3.966 --    12 C    1.516    14 C    1.297    37 H    0.966
                            10 C    0.101
    14   6 C    3.986 --    13 C    1.297     9 C    1.269     5 C    1.206
    15   6 C    3.988 --    16 C    1.443    24 C    1.248     8 C    1.103
                            18 C    0.101
    16   6 C    3.967 --    15 C    1.443    17 C    1.361    38 H    0.963
    17   6 C    3.992 --    18 C    1.526    16 C    1.361    39 H    0.971
    18   6 C    3.963 --    17 C    1.526    19 C    1.280    40 H    0.969
                            15 C    0.101
    19   6 C    3.990 --    20 C    1.280    18 C    1.280    24 C    1.257
    20   6 C    3.964 --    21 C    1.527    19 C    1.280    41 H    0.969
                            23 C    0.101
    21   6 C    3.992 --    20 C    1.527    22 C    1.360    42 H    0.970
    22   6 C    3.970 --    23 C    1.445    21 C    1.360    43 H    0.962
    23   6 C    3.989 --    22 C    1.445    24 C    1.250    10 C    1.099
                            20 C    0.101
    24   6 C    3.988 --    19 C    1.257    23 C    1.250    15 C    1.248
    25  17 Cl   0.788 --    28 H    0.709
    26   1 H    0.970 --     1 N    0.957
    27   1 H    0.972 --     1 N    0.958
    28   1 H    0.890 --    25 Cl   0.709     1 N    0.177
    29   1 H    0.999 --     2 C    0.969
    30   1 H    0.996 --     2 C    0.974
    31   1 H    0.993 --     3 C    0.966
    32   1 H    0.998 --     3 C    0.963
    33   1 H    0.998 --     6 C    0.963
    34   1 H    0.998 --     7 C    0.962
    35   1 H    0.998 --    11 C    0.962
    36   1 H    0.998 --    12 C    0.970
    37   1 H    0.997 --    13 C    0.966
    38   1 H    0.999 --    16 C    0.963
    39   1 H    0.998 --    17 C    0.971
    40   1 H    0.998 --    18 C    0.969
    41   1 H    0.998 --    20 C    0.969
    42   1 H    0.998 --    21 C    0.970
    43   1 H    0.998 --    22 C    0.962
 ---------------------------------------------------------------------------

molecular dipole:
                 x           y           z       tot (Debye)
 q only:       -0.046       1.135      -1.164
   full:       -0.245       1.270      -0.964       4.100

           -------------------------------------------------
          | TOTAL ENERGY              -67.852551275567 Eh   |
          | GRADIENT NORM               0.000335687710 Eh/α |
          | HOMO-LUMO GAP               1.843127765811 eV   |
           -------------------------------------------------

 * finished run on 2023/01/23 at 20:59:10.236
