   * xtb version 6.5.1 (fef0646) compiled by 'conda@b96dff2e9fd6' on 2023-01-04
          program call               : xtb init.xyz --opt -c 0 -u 0 -P 16 --alpb water

   ID    Z sym.   atoms
    1    7 N      1
    2    6 C      2-7
    3   17 Cl     8
    4    1 H      9-24

      * Solvation model:               ALPB
        Solvent                        water
        Solvent mass                       1.8000E+01 g/mol
          :  Hamiltonian                  GFN2-xTB          :
 * total energy  :   -28.5126681 Eh     change       -0.4834213E-09 Eh
 * total energy  :   -28.5180457 Eh     change       -0.5377581E-02 Eh
 * total energy  :   -28.5193517 Eh     change       -0.1305954E-02 Eh
 * total energy  :   -28.5199094 Eh     change       -0.5577603E-03 Eh
 * total energy  :   -28.5203602 Eh     change       -0.4507472E-03 Eh
 * total energy  :   -28.5209932 Eh     change       -0.6329861E-03 Eh
 * total energy  :   -28.5216593 Eh     change       -0.6661919E-03 Eh
 * total energy  :   -28.5220540 Eh     change       -0.3946589E-03 Eh
 * total energy  :   -28.5222640 Eh     change       -0.2100457E-03 Eh
 * total energy  :   -28.5224238 Eh     change       -0.1597554E-03 Eh
 * total energy  :   -28.5231336 Eh     change       -0.3060595E-04 Eh
 * total energy  :   -28.5231658 Eh     change       -0.3212807E-04 Eh
 * total energy  :   -28.5231757 Eh     change       -0.9965780E-05 Eh
 * total energy  :   -28.5231939 Eh     change       -0.1814352E-04 Eh
 * total energy  :   -28.5232032 Eh     change       -0.9312079E-05 Eh
 * total energy  :   -28.5232111 Eh     change       -0.7875677E-05 Eh
 * total energy  :   -28.5232200 Eh     change       -0.8928436E-05 Eh
 * total energy  :   -28.5232271 Eh     change       -0.7096991E-05 Eh
 * total energy  :   -28.5232314 Eh     change       -0.4270579E-05 Eh
   *** GEOMETRY OPTIMIZATION CONVERGED AFTER 28 ITERATIONS ***

 final structure:
================
24
 xtb: 6.5.1 (fef0646)
N            1.18291730999478       -0.14216269841261       -0.32826153124349
C            2.65905986810743       -0.07909013837870       -0.32930688569707
C            3.12605790541582        1.28575813499127        0.15922488830825
C            4.64855722003504        1.35246127581012        0.26046611761213
C            5.12592223119264        2.72769937749327        0.72068462905637
C            6.64667986939386        2.79846761812066        0.84083243695618
C            7.11702341421069        4.17934446133141        1.28238057231032
Cl           0.11818708993351        0.34846076340240        2.49867138002003
H            0.84434051047080       -1.05714451898560       -0.63401453091346
H            0.78835625520236        0.59003464984852       -0.92375897682035
H            0.82014126190988        0.02360437126375        0.64497347094162
H            3.03092023494956       -0.26603199682697       -1.33752840071351
H            3.03861210504304       -0.84962723199070        0.34098451144644
H            2.68401040805323        1.47662582436765        1.13910066820561
H            2.78200879262514        2.06516280638600       -0.52213882323802
H            5.09024752138055        1.12920497300423       -0.71279733730742
H            4.99967230547993        0.59842164076669        0.96751980533529
H            4.67679271625835        2.96011368385873        1.68940410629661
H            4.78815756535413        3.48690071231527        0.01163588739456
H            7.09709233713683        2.55509677503435       -0.12395396729798
H            6.98662051555062        2.05269210581707        1.56296790574940
H            6.81091243265525        4.93488283841324        0.56216545997686
H            8.20053019382876        4.20658423522268        1.36969072682578
H            6.68837993581745        4.43657033714723        2.24882788679324

          :  Hamiltonian                  GFN2-xTB          :
         :: total energy             -28.523231355887 Eh    ::
         :: gradient norm              0.000338398040 Eh/a0 ::
         :: HOMO-LUMO gap             10.116574284144 eV    ::
         :: SCC energy               -28.867104424686 Eh    ::
         :: -> dispersion             -0.013561764587 Eh    ::
         :: -> Gsolv                  -0.072751260159 Eh    ::
         :: repulsion energy           0.343909107039 Eh    ::

    * Orbital Energies and Occupations

         #    Occupation            Energy/Eh            Energy/eV
      -------------------------------------------------------------
         1        2.0000           -1.0059666             -27.3737
       ...           ...                  ...                  ...
        14        2.0000           -0.4902824             -13.3413
        15        2.0000           -0.4785048             -13.0208
        16        2.0000           -0.4689202             -12.7600
        17        2.0000           -0.4639260             -12.6241
        18        2.0000           -0.4450578             -12.1106
        19        2.0000           -0.4420812             -12.0296
        20        2.0000           -0.4287046             -11.6656
        21        2.0000           -0.4236336             -11.5277
        22        2.0000           -0.4229362             -11.5087
        23        2.0000           -0.4146969             -11.2845
        24        2.0000           -0.4026391             -10.9564
        25        2.0000           -0.4002207             -10.8906
        26        2.0000           -0.3999284             -10.8826 (HOMO)
        27                         -0.0281512              -0.7660 (LUMO)
        28                          0.0595211               1.6197
        29                          0.0891927               2.4271
        30                          0.0986203               2.6836
        31                          0.1145561               3.1172
        32                          0.1162775               3.1641
        33                          0.1175921               3.1998
        34                          0.1184049               3.2220
        35                          0.1199664               3.2645
        36                          0.1202017               3.2709
        37                          0.1264155               3.4399
       ...                                ...                  ...
        53                          0.3242371               8.8229
      -------------------------------------------------------------
                  HL-Gap            0.3717773 Eh           10.1166 eV

     #   Z          covCN         q      C6AA      α(0)
     1   7 N        3.484    -0.170    24.662     7.376
     2   6 C        3.733    -0.026    21.132     6.561
     3   6 C        3.804    -0.077    21.977     6.674
     4   6 C        3.804    -0.067    21.790     6.646
     5   6 C        3.803    -0.064    21.725     6.636
     6   6 C        3.801    -0.059    21.642     6.624
     7   6 C        3.752    -0.110    22.673     6.790
     8  17 Cl       0.047    -0.948   124.917    17.010
     9   1 H        0.859     0.304     0.701     1.312
    10   1 H        0.859     0.297     0.723     1.332
    11   1 H        0.904     0.293     0.731     1.338
    12   1 H        0.924     0.104     1.747     2.067
    13   1 H        0.925     0.095     1.831     2.116
    14   1 H        0.924     0.054     2.276     2.359
    15   1 H        0.924     0.059     2.207     2.323
    16   1 H        0.924     0.047     2.361     2.403
    17   1 H        0.924     0.037     2.488     2.467
    18   1 H        0.924     0.028     2.621     2.532
    19   1 H        0.924     0.036     2.496     2.471
    20   1 H        0.924     0.035     2.510     2.478
    21   1 H        0.924     0.029     2.596     2.520
    22   1 H        0.925     0.037     2.490     2.467
    23   1 H        0.925     0.036     2.509     2.477
    24   1 H        0.925     0.032     2.559     2.502

Wiberg/Mayer (AO) data.
largest (>0.10) Wiberg bond orders for each atom

     #   Z sym  total        # sym  WBO       # sym  WBO       # sym  WBO
 ---------------------------------------------------------------------------
     1   7 N    3.645 --     2 C    0.968    10 H    0.897     9 H    0.894
                            11 H    0.834
     2   6 C    3.930 --     3 C    1.009    13 H    0.969     1 N    0.968
                            12 H    0.967
     3   6 C    3.992 --     2 C    1.009     4 C    1.005    15 H    0.974
                            14 H    0.974
     4   6 C    3.996 --     5 C    1.007     3 C    1.005    17 H    0.977
                            16 H    0.976
     5   6 C    3.997 --     6 C    1.008     4 C    1.007    18 H    0.978
                            19 H    0.977
     6   6 C    3.997 --     7 C    1.019     5 C    1.008    21 H    0.979
                            20 H    0.978
     7   6 C    3.996 --     6 C    1.019    24 H    0.988    22 H    0.988
                            23 H    0.987
     8  17 Cl   0.101
     9   1 H    0.907 --     1 N    0.894
    10   1 H    0.912 --     1 N    0.897
    11   1 H    0.914 --     1 N    0.834
    12   1 H    0.989 --     2 C    0.967
    13   1 H    0.991 --     2 C    0.969
    14   1 H    0.997 --     3 C    0.974
    15   1 H    0.996 --     3 C    0.974
    16   1 H    0.998 --     4 C    0.976
    17   1 H    0.999 --     4 C    0.977
    18   1 H    0.999 --     5 C    0.978
    19   1 H    0.999 --     5 C    0.977
    20   1 H    0.999 --     6 C    0.978
    21   1 H    0.999 --     6 C    0.979
    22   1 H    0.999 --     7 C    0.988
    23   1 H    0.998 --     7 C    0.987
    24   1 H    0.999 --     7 C    0.988
 ---------------------------------------------------------------------------

molecular dipole:
                 x           y           z       tot (Debye)
 q only:        2.151      -0.823      -5.093
   full:        1.748      -0.720      -4.414      12.205

           -------------------------------------------------
          | TOTAL ENERGY              -28.523231355887 Eh   |
          | GRADIENT NORM               0.000338398040 Eh/α |
          | HOMO-LUMO GAP              10.116574284144 eV   |
           -------------------------------------------------

 * finished run on 2023/01/24 at 16:07:33.972
