   * xtb version 6.5.1 (fef0646) compiled by 'conda@b96dff2e9fd6' on 2023-01-04
          program call               : xtb init.xyz --opt -c 0 -u 0 -P 16

   ID    Z sym.   atoms
    1    7 N      1
    2    6 C      2, 3, 5-24
    3    8 O      4
    4   17 Cl     25
    5    1 H      26-43

          :  Hamiltonian                  GFN2-xTB          :
 * total energy  :   -67.8140381 Eh     change       -0.2337430E-08 Eh
 * total energy  :   -67.8219159 Eh     change       -0.7877814E-02 Eh
 * total energy  :   -67.8263185 Eh     change       -0.4402603E-02 Eh
 * total energy  :   -67.8307386 Eh     change       -0.4420170E-02 Eh
 * total energy  :   -67.8398064 Eh     change       -0.9067797E-02 Eh
 * total energy  :   -67.8406854 Eh     change       -0.8790005E-03 Eh
 * total energy  :   -67.8425443 Eh     change       -0.1858906E-02 Eh
 * total energy  :   -67.8394434 Eh     change        0.3100908E-02 Eh
 * total energy  :   -67.8467281 Eh     change       -0.7284626E-02 Eh
 * total energy  :   -67.8488304 Eh     change       -0.2102348E-02 Eh
 * total energy  :   -67.8550264 Eh     change       -0.2462161E-04 Eh
 * total energy  :   -67.8550410 Eh     change       -0.1461341E-04 Eh
 * total energy  :   -67.8550543 Eh     change       -0.1324333E-04 Eh
 * total energy  :   -67.8550623 Eh     change       -0.8034851E-05 Eh
 * total energy  :   -67.8550679 Eh     change       -0.5611485E-05 Eh
 * total energy  :   -67.8550729 Eh     change       -0.5040204E-05 Eh
 * total energy  :   -67.8550783 Eh     change       -0.5385878E-05 Eh
 * total energy  :   -67.8550844 Eh     change       -0.6116798E-05 Eh
 * total energy  :   -67.8550885 Eh     change       -0.4072370E-05 Eh
   *** GEOMETRY OPTIMIZATION CONVERGED AFTER 39 ITERATIONS ***

 final structure:
================
43
 xtb: 6.5.1 (fef0646)
N            1.76296087491946        1.44775545839554       -0.68280683717873
C            2.20714841520056        1.86072181211973        0.64615056925033
C            3.49625057673279        1.10489626856235        0.98226859972081
O            4.53514212977154        1.43696930942132        0.08863385435908
C            5.20214567594262        2.61947470848094        0.22338479669603
C            5.04660612882733        3.51479233563180        1.25368541303049
C            5.80843283637736        4.68136675964522        1.29367920398056
C            6.72590666414149        5.00614685179792        0.31252248932946
C            6.88073867755003        4.11317965010153       -0.78289610989307
C            7.77414364730623        4.40015626732824       -1.85028943150412
C            7.92579722830889        3.46684689362947       -2.86217486408135
C            7.20573707534802        2.27468170443136       -2.87409108173238
C            6.31198045664497        1.99899286201607       -1.87569983669406
C            6.13352926644644        2.90761890394316       -0.81641717449674
C            7.53012352491918        6.21911512654002        0.36680943690998
C            7.49163859626341        7.08423790010703        1.44739502881137
C            8.24624651296621        8.25633141681904        1.47725549797739
C            9.04640117342840        8.58846321796063        0.41962445455533
C            9.13164516388861        7.73838523208358       -0.70027606864246
C            9.95124568986935        8.07551172685765       -1.79525565409361
C           10.02582817915424        7.24788736175750       -2.88062393777613
C            9.30995340642514        6.05127765331898       -2.90271574195748
C            8.50276189086973        5.66384940007906       -1.84647533868268
C            8.38300430851187        6.53071299995593       -0.72662197692690
Cl           1.00097338751329       -1.38258382164228       -0.53077018109821
H            0.97620037942520        2.00088662032624       -1.00380439107978
H            1.35238865511300       -0.06444150996272       -0.62662594641917
H            2.52924342848485        1.54295998060243       -1.34354202340665
H            1.43286470112794        1.59507549177007        1.36862411671021
H            2.38978506846988        2.94285756983644        0.70212753134204
H            3.32917187861700        0.03578340633384        0.83169992906892
H            3.78920959953351        1.27770615518498        2.02269062711359
H            4.34809930720745        3.33580143480196        2.05653310136874
H            5.64776756094438        5.33901774727948        2.13239149770568
H            8.61742464980160        3.64313776637685       -3.66994165966007
H            7.35571801905275        1.57253770556501       -3.68093955134442
H            5.74110700490564        1.08420602895897       -1.87454022030058
H            6.87169915112808        6.86600732600524        2.30198857879058
H            8.18647256069725        8.90103533910969        2.34221502880288
H            9.62517872283741        9.50063529379665        0.42636097651339
H           10.51169577737394        8.99851681192880       -1.76107895498568
H           10.64299459975970        7.50947379288982       -3.72796560187240
H            9.40174744819501        5.42996503984414       -3.77885814821025

          :  Hamiltonian                  GFN2-xTB          :
         :: total energy             -67.855088516101 Eh    ::
         :: gradient norm              0.000614686585 Eh/a0 ::
         :: HOMO-LUMO gap              1.844342313797 eV    ::
         :: SCC energy               -68.951608004500 Eh    ::
         :: -> dispersion             -0.053376011699 Eh    ::
         :: repulsion energy           1.096586513324 Eh    ::

    * Orbital Energies and Occupations

         #    Occupation            Energy/Eh            Energy/eV
      -------------------------------------------------------------
         1        2.0000           -1.0208026             -27.7775
       ...           ...                  ...                  ...
        50        2.0000           -0.4362216             -11.8702
        51        2.0000           -0.4350928             -11.8395
        52        2.0000           -0.4286281             -11.6636
        53        2.0000           -0.4083098             -11.1107
        54        2.0000           -0.4080052             -11.1024
        55        2.0000           -0.4057624             -11.0414
        56        2.0000           -0.4053094             -11.0290
        57        2.0000           -0.4040230             -10.9940
        58        2.0000           -0.4012070             -10.9174
        59        2.0000           -0.3982188             -10.8361
        60        2.0000           -0.3979054             -10.8276
        61        2.0000           -0.3955798             -10.7643
        62        2.0000           -0.3540842              -9.6351 (HOMO)
        63                         -0.2863059              -7.7908 (LUMO)
        64                         -0.2332684              -6.3476
        65                         -0.2271240              -6.1804
        66                         -0.2263174              -6.1584
        67                         -0.2239390              -6.0937
        68                         -0.1581315              -4.3030
        69                         -0.1571539              -4.2764
        70                         -0.1181009              -3.2137
        71                         -0.0763678              -2.0781
        72                         -0.0600499              -1.6340
        73                         -0.0241670              -0.6576
       ...                                ...                  ...
       123                          0.7364223              20.0391
      -------------------------------------------------------------
                  HL-Gap            0.0677783 Eh            1.8443 eV

     #   Z          covCN         q      C6AA      α(0)
     1   7 N        2.689    -0.306    27.881     7.842
     2   6 C        3.729    -0.000    20.684     6.492
     3   6 C        3.692     0.062    19.706     6.352
     4   8 O        1.705    -0.269    18.456     5.800
     5   6 C        2.860     0.133    25.080     8.209
     6   6 C        2.910    -0.074    29.836     8.957
     7   6 C        2.923    -0.040    28.993     8.830
     8   6 C        2.973    -0.005    28.142     8.702
     9   6 C        2.994     0.003    27.956     8.673
    10   6 C        2.974     0.007    27.866     8.659
    11   6 C        2.923    -0.036    28.893     8.815
    12   6 C        2.913    -0.032    28.792     8.799
    13   6 C        2.921    -0.034    28.835     8.806
    14   6 C        2.986    -0.008    28.204     8.712
    15   6 C        2.974     0.006    27.874     8.660
    16   6 C        2.923    -0.039    28.967     8.826
    17   6 C        2.913    -0.031    28.775     8.796
    18   6 C        2.921    -0.038    28.951     8.824
    19   6 C        2.986     0.012    27.738     8.639
    20   6 C        2.921    -0.037    28.924     8.819
    21   6 C        2.913    -0.031    28.774     8.796
    22   6 C        2.923    -0.038    28.934     8.821
    23   6 C        2.973     0.005    27.897     8.664
    24   6 C        2.995     0.003    27.941     8.671
    25  17 Cl       0.838    -0.481   114.992    16.405
    26   1 H        0.860     0.168     1.286     1.777
    27   1 H        0.895     0.333     0.621     1.233
    28   1 H        0.860     0.181     1.206     1.720
    29   1 H        0.924     0.059     2.216     2.328
    30   1 H        0.923     0.037     2.485     2.465
    31   1 H        0.924     0.083     1.952     2.185
    32   1 H        0.924     0.044     2.401     2.423
    33   1 H        0.926     0.029     2.597     2.520
    34   1 H        0.926     0.036     2.507     2.476
    35   1 H        0.926     0.035     2.517     2.481
    36   1 H        0.926     0.033     2.549     2.497
    37   1 H        0.926     0.047     2.355     2.400
    38   1 H        0.926     0.030     2.586     2.515
    39   1 H        0.926     0.029     2.604     2.524
    40   1 H        0.926     0.030     2.581     2.512
    41   1 H        0.926     0.031     2.573     2.508
    42   1 H        0.926     0.029     2.594     2.518
    43   1 H        0.926     0.032     2.557     2.501

Wiberg/Mayer (AO) data.
largest (>0.10) Wiberg bond orders for each atom

     #   Z sym  total        # sym  WBO       # sym  WBO       # sym  WBO
 ---------------------------------------------------------------------------
     1   7 N    3.231 --     2 C    1.012    26 H    0.958    28 H    0.951
                            27 H    0.200
     2   6 C    3.976 --     1 N    1.012     3 C    0.994    29 H    0.973
                            30 H    0.969
     3   6 C    3.946 --     2 C    0.994     4 O    0.976    32 H    0.963
                            31 H    0.963
     4   8 O    2.233 --     5 C    1.059     3 C    0.976
     5   6 C    3.909 --     6 C    1.451    14 C    1.206     4 O    1.059
     6   6 C    3.985 --     5 C    1.451     7 C    1.362    33 H    0.963
     7   6 C    3.970 --     8 C    1.444     6 C    1.362    34 H    0.962
     8   6 C    3.987 --     7 C    1.444     9 C    1.238    15 C    1.102
     9   6 C    3.988 --    14 C    1.269    10 C    1.251     8 C    1.238
    10   6 C    3.988 --    11 C    1.441     9 C    1.251    23 C    1.099
                            13 C    0.101
    11   6 C    3.973 --    10 C    1.441    12 C    1.368    35 H    0.962
    12   6 C    3.991 --    13 C    1.516    11 C    1.368    36 H    0.970
    13   6 C    3.966 --    12 C    1.516    14 C    1.297    37 H    0.966
                            10 C    0.101
    14   6 C    3.986 --    13 C    1.297     9 C    1.269     5 C    1.206
    15   6 C    3.988 --    16 C    1.443    24 C    1.248     8 C    1.102
                            18 C    0.101
    16   6 C    3.967 --    15 C    1.443    17 C    1.361    38 H    0.963
    17   6 C    3.992 --    18 C    1.526    16 C    1.361    39 H    0.970
    18   6 C    3.963 --    17 C    1.526    19 C    1.280    40 H    0.969
                            15 C    0.101
    19   6 C    3.990 --    18 C    1.280    20 C    1.280    24 C    1.257
    20   6 C    3.964 --    21 C    1.527    19 C    1.280    41 H    0.968
                            23 C    0.101
    21   6 C    3.992 --    20 C    1.527    22 C    1.360    42 H    0.970
    22   6 C    3.970 --    23 C    1.445    21 C    1.360    43 H    0.962
    23   6 C    3.989 --    22 C    1.445    24 C    1.249    10 C    1.099
                            20 C    0.101
    24   6 C    3.988 --    19 C    1.257    23 C    1.249    15 C    1.248
    25  17 Cl   0.771 --    27 H    0.685
    26   1 H    0.972 --     1 N    0.958
    27   1 H    0.889 --    25 Cl   0.685     1 N    0.200
    28   1 H    0.967 --     1 N    0.951
    29   1 H    0.996 --     2 C    0.973
    30   1 H    0.999 --     2 C    0.969
    31   1 H    0.993 --     3 C    0.963
    32   1 H    0.997 --     3 C    0.963
    33   1 H    0.998 --     6 C    0.963
    34   1 H    0.998 --     7 C    0.962
    35   1 H    0.998 --    11 C    0.962
    36   1 H    0.998 --    12 C    0.970
    37   1 H    0.997 --    13 C    0.966
    38   1 H    0.999 --    16 C    0.963
    39   1 H    0.998 --    17 C    0.970
    40   1 H    0.998 --    18 C    0.969
    41   1 H    0.998 --    20 C    0.968
    42   1 H    0.998 --    21 C    0.970
    43   1 H    0.998 --    22 C    0.962
 ---------------------------------------------------------------------------

molecular dipole:
                 x           y           z       tot (Debye)
 q only:        0.268       1.716       0.131
   full:        0.129       1.652       0.201       4.243

           -------------------------------------------------
          | TOTAL ENERGY              -67.855088516101 Eh   |
          | GRADIENT NORM               0.000614686585 Eh/α |
          | HOMO-LUMO GAP               1.844342313797 eV   |
           -------------------------------------------------

 * finished run on 2023/01/23 at 14:24:44.674
