   * xtb version 6.5.1 (fef0646) compiled by 'conda@b96dff2e9fd6' on 2023-01-04
          program call               : xtb init.xyz --opt -c 0 -u 0 -P 16 --alpb water

   ID    Z sym.   atoms
    1    7 N      1
    2    6 C      2-8
    3   17 Cl     9
    4    1 H      10-19

      * Solvation model:               ALPB
        Solvent                        water
        Solvent mass                       1.8000E+01 g/mol
          :  Hamiltonian                  GFN2-xTB          :
 * total energy  :   -27.5684744 Eh     change       -0.2522818E-09 Eh
 * total energy  :   -27.5730949 Eh     change       -0.4620454E-02 Eh
 * total energy  :   -27.5743342 Eh     change       -0.1239325E-02 Eh
 * total energy  :   -27.5750347 Eh     change       -0.7005580E-03 Eh
 * total energy  :   -27.5757384 Eh     change       -0.7036104E-03 Eh
 * total energy  :   -27.5763054 Eh     change       -0.5670291E-03 Eh
 * total energy  :   -27.5766106 Eh     change       -0.3051684E-03 Eh
 * total energy  :   -27.5767737 Eh     change       -0.1631813E-03 Eh
 * total energy  :   -27.5768775 Eh     change       -0.1037149E-03 Eh
 * total energy  :   -27.5769763 Eh     change       -0.9884192E-04 Eh
 * total energy  :   -27.5781478 Eh     change       -0.7463013E-04 Eh
 * total energy  :   -27.5781893 Eh     change       -0.4154198E-04 Eh
 * total energy  :   -27.5782222 Eh     change       -0.3288793E-04 Eh
 * total energy  :   -27.5782319 Eh     change       -0.9633131E-05 Eh
 * total energy  :   -27.5782492 Eh     change       -0.1734263E-04 Eh
 * total energy  :   -27.5782576 Eh     change       -0.8371611E-05 Eh
 * total energy  :   -27.5782723 Eh     change       -0.1467530E-04 Eh
 * total energy  :   -27.5782808 Eh     change       -0.8549909E-05 Eh
 * total energy  :   -27.5782837 Eh     change       -0.2863001E-05 Eh
   *** GEOMETRY OPTIMIZATION CONVERGED AFTER 29 ITERATIONS ***

 final structure:
================
19
 xtb: 6.5.1 (fef0646)
N            3.08156604595764       -1.00457984244056       -0.45656920874342
C            2.46126306420690        0.29846141749966       -0.12780652412170
C            2.91325165003168        0.81635074059467        1.21198777987309
C            3.32135468446261        2.13666511819557        1.34998082254722
C            3.71478416925022        2.62502025407009        2.58400194975674
C            3.71267538678172        1.79314563702342        3.69058387273396
C            3.31002118990782        0.47408486585164        3.55850481503623
C            2.90771970548787       -0.01372012668220        2.32748123257817
Cl           1.87201163643008       -3.37691041382312        1.05245300756606
H            2.89626888571591       -1.25924711871462       -1.42938914946498
H            2.68239296852698       -1.77942781241793        0.13069181172065
H            4.09075615378837       -0.97972843731439       -0.29161097824124
H            1.37770634018348        0.16444848745363       -0.11329159639645
H            2.71829560149864        1.02448981279035       -0.90029121268948
H            3.32580902746090        2.79186088851267        0.49204350716363
H            4.02654701381029        3.65381449239430        2.68314154973375
H            4.02163683281634        2.16996495675045        4.65431537431219
H            3.30440406160489       -0.17831840132764        4.41970950170348
H            2.58159558207985       -1.03956451841265        2.24074344493209

          :  Hamiltonian                  GFN2-xTB          :
         :: total energy             -27.578283664611 Eh    ::
         :: gradient norm              0.000293532343 Eh/a0 ::
         :: HOMO-LUMO gap              4.745680615606 eV    ::
         :: SCC energy               -27.981489432310 Eh    ::
         :: -> dispersion             -0.014501183560 Eh    ::
         :: -> Gsolv                  -0.072727400837 Eh    ::
         :: repulsion energy           0.403154658042 Eh    ::

    * Orbital Energies and Occupations

         #    Occupation            Energy/Eh            Energy/eV
      -------------------------------------------------------------
         1        2.0000           -1.0076888             -27.4206
       ...           ...                  ...                  ...
        13        2.0000           -0.4955306             -13.4841
        14        2.0000           -0.4898125             -13.3285
        15        2.0000           -0.4776308             -12.9970
        16        2.0000           -0.4715306             -12.8310
        17        2.0000           -0.4685929             -12.7511
        18        2.0000           -0.4599177             -12.5150
        19        2.0000           -0.4234871             -11.5237
        20        2.0000           -0.4168042             -11.3418
        21        2.0000           -0.4042508             -11.0002
        22        2.0000           -0.4012384             -10.9183
        23        2.0000           -0.4005551             -10.8997
        24        2.0000           -0.3996972             -10.8763
        25        2.0000           -0.3970108             -10.8032 (HOMO)
        26                         -0.2226103              -6.0575 (LUMO)
        27                         -0.2188868              -5.9562
        28                         -0.0939713              -2.5571
        29                         -0.0172574              -0.4696
        30                          0.0799141               2.1746
        31                          0.0940095               2.5581
        32                          0.1011761               2.7531
        33                          0.1141046               3.1049
        34                          0.1162013               3.1620
        35                          0.1176527               3.2015
        36                          0.1183595               3.2207
       ...                                ...                  ...
        51                          0.6674001              18.1609
      -------------------------------------------------------------
                  HL-Gap            0.1744006 Eh            4.7457 eV

     #   Z          covCN         q      C6AA      α(0)
     1   7 N        3.483    -0.167    24.595     7.366
     2   6 C        3.737    -0.035    21.282     6.583
     3   6 C        2.970     0.010    27.790     8.647
     4   6 C        2.924    -0.044    29.103     8.847
     5   6 C        2.919    -0.035    28.866     8.811
     6   6 C        2.920    -0.035    28.875     8.812
     7   6 C        2.920    -0.031    28.771     8.796
     8   6 C        2.923    -0.040    29.006     8.832
     9  17 Cl       0.044    -0.946   124.832    17.004
    10   1 H        0.859     0.306     0.695     1.306
    11   1 H        0.901     0.294     0.729     1.336
    12   1 H        0.859     0.298     0.719     1.329
    13   1 H        0.924     0.110     1.694     2.035
    14   1 H        0.924     0.113     1.668     2.020
    15   1 H        0.926     0.055     2.256     2.349
    16   1 H        0.926     0.040     2.447     2.446
    17   1 H        0.926     0.030     2.581     2.512
    18   1 H        0.926     0.023     2.687     2.564
    19   1 H        0.926     0.054     2.276     2.359

Wiberg/Mayer (AO) data.
largest (>0.10) Wiberg bond orders for each atom

     #   Z sym  total        # sym  WBO       # sym  WBO       # sym  WBO
 ---------------------------------------------------------------------------
     1   7 N    3.645 --     2 C    0.965    12 H    0.896    10 H    0.892
                            11 H    0.834
     2   6 C    3.931 --     3 C    1.010     1 N    0.965    14 H    0.964
                            13 H    0.954
     3   6 C    3.988 --     4 C    1.417     8 C    1.410     2 C    1.010
                             6 C    0.109
     4   6 C    3.990 --     5 C    1.441     3 C    1.417    15 H    0.967
                             7 C    0.111
     5   6 C    3.992 --     6 C    1.441     4 C    1.441    16 H    0.970
                             8 C    0.113
     6   6 C    3.992 --     5 C    1.441     7 C    1.437    17 H    0.971
                             3 C    0.109
     7   6 C    3.993 --     8 C    1.447     6 C    1.437    18 H    0.972
                             4 C    0.111
     8   6 C    3.991 --     7 C    1.447     3 C    1.410    19 H    0.964
                             5 C    0.113
     9  17 Cl   0.105
    10   1 H    0.906 --     1 N    0.892
    11   1 H    0.914 --     1 N    0.834
    12   1 H    0.911 --     1 N    0.896
    13   1 H    0.988 --     2 C    0.954
    14   1 H    0.987 --     2 C    0.964
    15   1 H    0.997 --     4 C    0.967
    16   1 H    0.998 --     5 C    0.970
    17   1 H    0.999 --     6 C    0.971
    18   1 H    0.999 --     7 C    0.972
    19   1 H    0.997 --     8 C    0.964
 ---------------------------------------------------------------------------

molecular dipole:
                 x           y           z       tot (Debye)
 q only:        2.013       4.418      -2.815
   full:        1.778       3.676      -2.435      12.085

           -------------------------------------------------
          | TOTAL ENERGY              -27.578283664611 Eh   |
          | GRADIENT NORM               0.000293532343 Eh/α |
          | HOMO-LUMO GAP               4.745680615606 eV   |
           -------------------------------------------------

 * finished run on 2023/01/24 at 14:55:58.145
