   * xtb version 6.5.1 (fef0646) compiled by 'conda@b96dff2e9fd6' on 2023-01-04
          program call               : xtb init.xyz --opt -c 1 -u 0 -P 16

   ID    Z sym.   atoms
    1    7 N      1, 16, 19
    2    6 C      2-15, 17, 18, 20-25
    3   16 S      26-29
    4    1 H      30-47

          :  Hamiltonian                  GFN2-xTB          :
 * total energy  :   -77.5115184 Eh     change       -0.1466333E-08 Eh
 * total energy  :   -77.5229701 Eh     change       -0.1145164E-01 Eh
 * total energy  :   -77.5260584 Eh     change       -0.3088303E-02 Eh
 * total energy  :   -77.5255402 Eh     change        0.5181728E-03 Eh
 * total energy  :   -77.5275716 Eh     change       -0.2031435E-02 Eh
 * total energy  :   -77.5280449 Eh     change       -0.4732670E-03 Eh
 * total energy  :   -77.5286623 Eh     change       -0.6174058E-03 Eh
 * total energy  :   -77.5291274 Eh     change       -0.4651082E-03 Eh
 * total energy  :   -77.5294586 Eh     change       -0.3312161E-03 Eh
 * total energy  :   -77.5297523 Eh     change       -0.2936695E-03 Eh
 * total energy  :   -77.5342614 Eh     change       -0.8254149E-05 Eh
 * total energy  :   -77.5342717 Eh     change       -0.1027958E-04 Eh
 * total energy  :   -77.5342872 Eh     change       -0.1544575E-04 Eh
 * total energy  :   -77.5343009 Eh     change       -0.1378085E-04 Eh
 * total energy  :   -77.5343128 Eh     change       -0.1188349E-04 Eh
 * total energy  :   -77.5343239 Eh     change       -0.1109156E-04 Eh
 * total energy  :   -77.5343322 Eh     change       -0.8270843E-05 Eh
 * total energy  :   -77.5343377 Eh     change       -0.5546925E-05 Eh
 * total energy  :   -77.5343424 Eh     change       -0.4702736E-05 Eh
   *** GEOMETRY OPTIMIZATION CONVERGED AFTER 59 ITERATIONS ***

 final structure:
================
47
 xtb: 6.5.1 (fef0646)
N            4.84080345370001        2.35544256807006       -2.24228385840274
C            4.48986867133862        2.40151675245214       -0.79520795480979
C            3.99022219546217        1.00633869791641       -0.39215162597316
C            5.00958313625962       -0.00294810579474       -0.80549125225716
C            5.15360291005893       -0.55628214915407       -2.05821898588924
C            6.31055300303571       -1.34546600849750       -2.18073159025817
C            7.07143289148527       -1.37229226610575       -1.03715551796125
C            8.29069777349540       -2.07111246935998       -0.82489956856108
C            9.02510819276391       -2.20578198734798        0.33071844155624
C           10.18082127940292       -2.98290917809040        0.18635492155836
C           11.11200114301702       -3.25821519409123        1.31625345583146
C           10.34373742490894       -3.44458926256129       -1.11488359802363
C           11.37611718008251       -4.25947580893060       -1.65743757973799
C           11.60046412453396       -4.56490890902531       -2.99263784368449
C           10.85445483609382       -4.06305136830756       -4.07253330880699
N           10.26587089388832       -3.65234512232910       -4.96772916384228
C           12.70523708154787       -5.43553908315767       -3.19776940519902
C           13.06283771784068       -5.83492607543376       -4.49765267106292
N           13.29820837808501       -6.11943717284609       -5.58312273234095
C           13.33736146018256       -5.81291920391984       -2.01966855973353
C           14.45515115390684       -6.67599979452068       -1.86350879702555
C           15.08021237312757       -7.08869113909570       -0.69439979040294
C           14.69103847144908       -6.68630921450203        0.68565738826046
C           16.15542594163313       -7.95896666991601       -0.95635855843884
C           16.34599473697244       -8.20216318108793       -2.28162594979056
S           15.22103778822416       -7.38037493656092       -3.26995248180617
S           12.55556214671474       -5.06323771148973       -0.65701465922585
S            9.04481263567743       -2.91301863489254       -2.14587623239858
S            6.34689921022923       -0.41094315196113        0.22180284253013
H            5.52296260323613        3.07006088042380       -2.51021845026268
H            4.00633681247620        2.45451394070000       -2.82988701923449
H            5.23722510685968        1.37399266914910       -2.38594676860368
H            3.73697748822007        3.16648542509434       -0.61141327387995
H            5.39043497373241        2.64035378850366       -0.22836822928571
H            3.03444442280471        0.79487128832754       -0.87531142523845
H            3.83785848592520        0.98217771045087        0.68538009415198
H            4.39765236707834       -0.51719940532426       -2.82646198920463
H            6.57997952219038       -1.88928901322034       -3.06708755881500
H            8.73039809856144       -1.75800515661162        1.26447588138722
H           10.81411258701848       -2.68536346589373        2.19028972605422
H           12.13467604165690       -2.98975090692827        1.05393745369809
H           11.10031305272123       -4.31661719838167        1.57661168141273
H           13.66058152644945       -6.97183151418662        0.89988056816432
H           14.77471648138479       -5.60673522930048        0.81586706665481
H           15.34101865950512       -7.17226018007454        1.40816039831379
H           16.76471423368941       -8.38911897571786       -0.18203635515320
H           17.08991933131898       -8.82369887649697       -2.73907716427806

          :  Hamiltonian                  GFN2-xTB          :
         :: total energy             -77.534342446468 Eh    ::
         :: gradient norm              0.000466447233 Eh/a0 ::
         :: HOMO-LUMO gap              1.451764970878 eV    ::
         :: SCC energy               -78.769027290230 Eh    ::
         :: -> dispersion             -0.064439143579 Eh    ::
         :: repulsion energy           1.235270257165 Eh    ::

    * Orbital Energies and Occupations

         #    Occupation            Energy/Eh            Energy/eV
      -------------------------------------------------------------
         1        2.0000           -0.8756903             -23.8287
       ...           ...                  ...                  ...
        60        2.0000           -0.5286037             -14.3840
        61        2.0000           -0.5274048             -14.3514
        62        2.0000           -0.5170285             -14.0691
        63        2.0000           -0.5165430             -14.0558
        64        2.0000           -0.5117479             -13.9254
        65        2.0000           -0.5056191             -13.7586
        66        2.0000           -0.4927629             -13.4088
        67        2.0000           -0.4866686             -13.2429
        68        2.0000           -0.4831058             -13.1460
        69        2.0000           -0.4817344             -13.1087
        70        2.0000           -0.4723492             -12.8533
        71        2.0000           -0.4621409             -12.5755
        72        2.0000           -0.4421173             -12.0306 (HOMO)
        73                         -0.3887659             -10.5789 (LUMO)
        74                         -0.3596028              -9.7853
        75                         -0.3471288              -9.4459
        76                         -0.3237484              -8.8096
        77                         -0.3164807              -8.6119
        78                         -0.3055277              -8.3138
        79                         -0.2991039              -8.1390
        80                         -0.2912499              -7.9253
        81                         -0.2839825              -7.7276
        82                         -0.2810274              -7.6471
        83                         -0.2661278              -7.2417
       ...                                ...                  ...
       154                          1.1341116              30.8607
      -------------------------------------------------------------
                  HL-Gap            0.0533514 Eh            1.4518 eV

     #   Z          covCN         q      C6AA      α(0)
     1   7 N        3.481    -0.148    24.200     7.306
     2   6 C        3.735    -0.032    21.237     6.577
     3   6 C        3.824    -0.089    22.170     6.700
     4   6 C        2.987    -0.010    28.270     8.722
     5   6 C        3.091    -0.078    29.843     8.954
     6   6 C        3.094    -0.061    29.389     8.885
     7   6 C        3.029     0.025    27.413     8.588
     8   6 C        3.016     0.011    27.754     8.642
     9   6 C        3.100    -0.052    29.160     8.849
    10   6 C        3.121     0.007    27.695     8.619
    11   6 C        3.756    -0.113    22.711     6.795
    12   6 C        3.018     0.014    27.675     8.629
    13   6 C        3.019     0.018    27.583     8.615
    14   6 C        3.149     0.002    27.704     8.610
    15   6 C        1.912     0.116    28.238     8.582
    16   7 N        0.911    -0.220    25.803     7.347
    17   6 C        3.147    -0.001    27.781     8.623
    18   6 C        1.908     0.113    28.323     8.595
    19   7 N        0.911    -0.209    25.555     7.311
    20   6 C        3.013     0.032    27.275     8.567
    21   6 C        3.023    -0.001    28.021     8.683
    22   6 C        3.128     0.010    27.590     8.600
    23   6 C        3.757    -0.111    22.670     6.789
    24   6 C        3.113    -0.049    29.045     8.828
    25   6 C        2.935    -0.012    28.307     8.726
    26  16 S        2.312     0.019   140.292    19.935
    27  16 S        2.345     0.003   140.944    19.981
    28  16 S        2.349    -0.012   141.558    20.025
    29  16 S        2.322    -0.005   141.257    20.004
    30   1 H        0.859     0.260     0.846     1.441
    31   1 H        0.859     0.260     0.845     1.440
    32   1 H        0.854     0.278     0.783     1.386
    33   1 H        0.925     0.104     1.745     2.066
    34   1 H        0.924     0.107     1.724     2.053
    35   1 H        0.924     0.078     2.003     2.213
    36   1 H        0.925     0.099     1.792     2.094
    37   1 H        0.926     0.044     2.395     2.420
    38   1 H        0.926     0.064     2.158     2.297
    39   1 H        0.926     0.050     2.321     2.382
    40   1 H        0.925     0.061     2.189     2.314
    41   1 H        0.925     0.062     2.181     2.310
    42   1 H        0.925     0.065     2.145     2.290
    43   1 H        0.924     0.059     2.210     2.325
    44   1 H        0.924     0.059     2.211     2.325
    45   1 H        0.925     0.064     2.156     2.296
    46   1 H        0.926     0.055     2.257     2.349
    47   1 H        0.926     0.066     2.134     2.284

Wiberg/Mayer (AO) data.
largest (>0.10) Wiberg bond orders for each atom

     #   Z sym  total        # sym  WBO       # sym  WBO       # sym  WBO
 ---------------------------------------------------------------------------
     1   7 N    3.659 --     2 C    0.942    30 H    0.919    31 H    0.918
                            32 H    0.812
     2   6 C    3.901 --     3 C    0.987    34 H    0.968    33 H    0.968
                             1 N    0.942
     3   6 C    3.981 --     4 C    1.024     2 C    0.987    35 H    0.964
                            36 H    0.960
     4   6 C    3.915 --     5 C    1.494    29 S    1.169     3 C    1.024
     5   6 C    3.983 --     4 C    1.494     6 C    1.304    37 H    0.955
     6   6 C    3.963 --     7 C    1.493     5 C    1.304    38 H    0.959
     7   6 C    3.951 --     6 C    1.493     8 C    1.175    29 S    1.127
     8   6 C    3.934 --     9 C    1.456     7 C    1.175    28 S    1.125
     9   6 C    3.982 --     8 C    1.456    10 C    1.337    39 H    0.960
    10   6 C    3.970 --    12 C    1.407     9 C    1.337    11 C    1.031
    11   6 C    3.992 --    10 C    1.031    40 H    0.980    41 H    0.964
                            42 H    0.960
    12   6 C    3.935 --    10 C    1.407    13 C    1.194    28 S    1.133
    13   6 C    3.944 --    14 C    1.386    12 C    1.194    27 S    1.125
    14   6 C    3.969 --    13 C    1.386    17 C    1.202    15 C    1.111
    15   6 C    3.949 --    16 N    2.774    14 C    1.111
    16   7 N    3.003 --    15 C    2.774
    17   6 C    3.974 --    20 C    1.382    14 C    1.202    18 C    1.108
    18   6 C    3.950 --    19 N    2.783    17 C    1.108
    19   7 N    2.997 --    18 C    2.783
    20   6 C    3.943 --    17 C    1.382    21 C    1.204    27 S    1.137
    21   6 C    3.941 --    22 C    1.422    20 C    1.204    26 S    1.119
    22   6 C    3.960 --    21 C    1.422    24 C    1.300    23 C    1.034
    23   6 C    3.993 --    22 C    1.034    45 H    0.979    43 H    0.960
                            44 H    0.960
    24   6 C    3.983 --    25 C    1.577    22 C    1.300    46 H    0.962
    25   6 C    3.935 --    24 C    1.577    26 S    1.229    47 H    0.967
    26  16 S    2.658 --    25 C    1.229    21 C    1.119
    27  16 S    2.655 --    20 C    1.137    13 C    1.125
    28  16 S    2.613 --    12 C    1.133     8 C    1.125
    29  16 S    2.597 --     4 C    1.169     7 C    1.127
    30   1 H    0.932 --     1 N    0.919
    31   1 H    0.932 --     1 N    0.918
    32   1 H    0.922 --     1 N    0.812
    33   1 H    0.988 --     2 C    0.968
    34   1 H    0.989 --     2 C    0.968
    35   1 H    0.993 --     3 C    0.964
    36   1 H    0.989 --     3 C    0.960
    37   1 H    0.998 --     5 C    0.955
    38   1 H    0.996 --     6 C    0.959
    39   1 H    0.997 --     9 C    0.960
    40   1 H    0.995 --    11 C    0.980
    41   1 H    0.994 --    11 C    0.964
    42   1 H    0.994 --    11 C    0.960
    43   1 H    0.995 --    23 C    0.960
    44   1 H    0.995 --    23 C    0.960
    45   1 H    0.995 --    23 C    0.979
    46   1 H    0.996 --    24 C    0.962
    47   1 H    0.995 --    25 C    0.967
 ---------------------------------------------------------------------------

molecular dipole:
                 x           y           z       tot (Debye)
 q only:       11.609       2.245      -0.904
   full:       11.942       1.939      -0.474      30.774

           -------------------------------------------------
          | TOTAL ENERGY              -77.534342446468 Eh   |
          | GRADIENT NORM               0.000466447233 Eh/α |
          | HOMO-LUMO GAP               1.451764970878 eV   |
           -------------------------------------------------

 * finished run on 2023/01/23 at 13:57:26.268
