   * xtb version 6.5.1 (fef0646) compiled by 'conda@b96dff2e9fd6' on 2023-01-04
          program call               : xtb init.xyz --opt -c 0 -u 0 -P 16

   ID    Z sym.   atoms
    1    7 N      1
    2    6 C      2-7, 9, 10
    3   17 Cl     8, 11
    4    1 H      12-22

          :  Hamiltonian                  GFN2-xTB          :
 * total energy  :   -34.7295654 Eh     change       -0.2774271E-08 Eh
 * total energy  :   -34.7367755 Eh     change       -0.7210119E-02 Eh
 * total energy  :   -34.7427583 Eh     change       -0.5982739E-02 Eh
 * total energy  :   -34.7461661 Eh     change       -0.3407866E-02 Eh
 * total energy  :   -34.7490980 Eh     change       -0.2931913E-02 Eh
 * total energy  :   -34.7509104 Eh     change       -0.1812391E-02 Eh
 * total energy  :   -34.7518126 Eh     change       -0.9022049E-03 Eh
 * total energy  :   -34.7525816 Eh     change       -0.7689203E-03 Eh
 * total energy  :   -34.7528413 Eh     change       -0.2596972E-03 Eh
 * total energy  :   -34.7529472 Eh     change       -0.1059951E-03 Eh
 * total energy  :   -34.7544670 Eh     change       -0.1139296E-04 Eh
 * total energy  :   -34.7544756 Eh     change       -0.8658800E-05 Eh
 * total energy  :   -34.7544837 Eh     change       -0.8021225E-05 Eh
 * total energy  :   -34.7544923 Eh     change       -0.8652129E-05 Eh
 * total energy  :   -34.7545022 Eh     change       -0.9880962E-05 Eh
 * total energy  :   -34.7545120 Eh     change       -0.9781562E-05 Eh
 * total energy  :   -34.7545197 Eh     change       -0.7683482E-05 Eh
 * total energy  :   -34.7545247 Eh     change       -0.5076044E-05 Eh
 * total energy  :   -34.7545282 Eh     change       -0.3441932E-05 Eh
   *** GEOMETRY OPTIMIZATION CONVERGED AFTER 39 ITERATIONS ***

 final structure:
================
22
 xtb: 6.5.1 (fef0646)
N            1.05365118957764        0.30794472683515       -0.10689227841451
C            2.50832528642446        0.31406122191131       -0.02316094154717
C            3.15819717628612        1.60476921890967       -0.55217960246650
C            4.65266110636336        1.51812521737370       -0.44058263706619
C            5.39690650470286        0.88902048192082       -1.43125088221014
C            6.76938071636819        0.76563183794411       -1.32071801398397
C            7.40828000371699        1.27673053828618       -0.20250272725257
Cl           9.12485116795586        1.12939587117389       -0.05594498323397
C            6.68613772817116        1.90623721430425        0.79801406123748
C            5.31349817325587        2.02021515282838        0.67312529472965
Cl          -0.00921057159970       -2.28740476788161        0.81315360353997
H            0.48062815783950       -1.09169086638603        0.39983827452043
H            0.74639350230650        0.43123706569394       -1.06633641441031
H            0.65384794161908        1.05136431703990        0.45636919320105
H            2.87874143322873       -0.54066189500326       -0.59304412735921
H            2.78434949403450        0.16748452631947        1.02309206662074
H            2.78894248834389        2.45601562606435        0.02463934323360
H            2.87074280203475        1.74563122462769       -1.59721244926184
H            4.89902066691099        0.49290096633051       -2.30412472106041
H            7.34141056519602        0.27781330564698       -2.09412118815408
H            7.19374929450726        2.30222922620074        1.66328927003296
H            4.75119517275855        2.51224978985539        1.45316985930611

          :  Hamiltonian                  GFN2-xTB          :
         :: total energy             -34.754528170260 Eh    ::
         :: gradient norm              0.000292712500 Eh/a0 ::
         :: HOMO-LUMO gap              4.154256934812 eV    ::
         :: SCC energy               -35.185866359886 Eh    ::
         :: -> dispersion             -0.018489433535 Eh    ::
         :: repulsion energy           0.431375092595 Eh    ::

    * Orbital Energies and Occupations

         #    Occupation            Energy/Eh            Energy/eV
      -------------------------------------------------------------
         1        2.0000           -1.0584576             -28.8021
       ...           ...                  ...                  ...
        19        2.0000           -0.4962717             -13.5042
        20        2.0000           -0.4958365             -13.4924
        21        2.0000           -0.4853701             -13.2076
        22        2.0000           -0.4635049             -12.6126
        23        2.0000           -0.4548293             -12.3765
        24        2.0000           -0.4505540             -12.2602
        25        2.0000           -0.4461815             -12.1412
        26        2.0000           -0.4267720             -11.6131
        27        2.0000           -0.4207570             -11.4494
        28        2.0000           -0.4109962             -11.1838
        29        2.0000           -0.3994807             -10.8704
        30        2.0000           -0.3994165             -10.8687
        31        2.0000           -0.3978097             -10.8250 (HOMO)
        32                         -0.2451435              -6.6707 (LUMO)
        33                         -0.2445707              -6.6551
        34                         -0.1396809              -3.8009
        35                         -0.1195869              -3.2541
        36                         -0.0616173              -1.6767
        37                          0.0127440               0.3468
        38                          0.0153519               0.4177
        39                          0.0179323               0.4880
        40                          0.0180472               0.4911
        41                          0.0310027               0.8436
        42                          0.0606798               1.6512
       ...                                ...                  ...
        65                          0.6319610              17.1965
      -------------------------------------------------------------
                  HL-Gap            0.1526661 Eh            4.1543 eV

     #   Z          covCN         q      C6AA      α(0)
     1   7 N        2.666    -0.309    27.962     7.854
     2   6 C        3.734     0.004    20.607     6.479
     3   6 C        3.806    -0.073    21.895     6.661
     4   6 C        2.970     0.009    27.811     8.650
     5   6 C        2.928    -0.036    28.907     8.817
     6   6 C        2.953    -0.039    28.972     8.828
     7   6 C        2.890     0.098    25.831     8.333
     8  17 Cl       0.966    -0.179   104.789    15.661
     9   6 C        2.953    -0.039    28.976     8.829
    10   6 C        2.927    -0.036    28.904     8.817
    11  17 Cl       0.839    -0.466   114.451    16.366
    12   1 H        0.876     0.331     0.625     1.238
    13   1 H        0.860     0.167     1.292     1.780
    14   1 H        0.860     0.166     1.294     1.782
    15   1 H        0.924     0.056     2.241     2.341
    16   1 H        0.924     0.055     2.256     2.349
    17   1 H        0.924     0.042     2.420     2.433
    18   1 H        0.924     0.043     2.409     2.427
    19   1 H        0.926     0.046     2.372     2.408
    20   1 H        0.926     0.058     2.224     2.332
    21   1 H        0.926     0.058     2.225     2.333
    22   1 H        0.926     0.045     2.377     2.411

Wiberg/Mayer (AO) data.
largest (>0.10) Wiberg bond orders for each atom

     #   Z sym  total        # sym  WBO       # sym  WBO       # sym  WBO
 ---------------------------------------------------------------------------
     1   7 N    3.222 --     2 C    1.013    14 H    0.958    13 H    0.958
                            12 H    0.181
     2   6 C    3.973 --     1 N    1.013     3 C    0.979    16 H    0.974
                            15 H    0.974
     3   6 C    3.996 --     4 C    1.012     2 C    0.979    17 H    0.974
                            18 H    0.971
     4   6 C    3.989 --    10 C    1.410     5 C    1.407     3 C    1.012
     5   6 C    3.991 --     6 C    1.448     4 C    1.407    19 H    0.968
                             9 C    0.108
     6   6 C    3.989 --     5 C    1.448     7 C    1.401    20 H    0.967
                            10 C    0.108
     7   6 C    3.915 --     9 C    1.404     6 C    1.401     8 Cl   0.973
     8  17 Cl   1.106 --     7 C    0.973
     9   6 C    3.989 --    10 C    1.445     7 C    1.404    21 H    0.967
                             5 C    0.108
    10   6 C    3.991 --     9 C    1.445     4 C    1.410    22 H    0.968
                             6 C    0.108
    11  17 Cl   0.784 --    12 H    0.706
    12   1 H    0.890 --    11 Cl   0.706     1 N    0.181
    13   1 H    0.972 --     1 N    0.958
    14   1 H    0.972 --     1 N    0.958
    15   1 H    0.997 --     2 C    0.974
    16   1 H    0.997 --     2 C    0.974
    17   1 H    0.998 --     3 C    0.974
    18   1 H    0.998 --     3 C    0.971
    19   1 H    0.998 --     5 C    0.968
    20   1 H    0.996 --     6 C    0.967
    21   1 H    0.996 --     9 C    0.967
    22   1 H    0.998 --    10 C    0.968
 ---------------------------------------------------------------------------

molecular dipole:
                 x           y           z       tot (Debye)
 q only:       -0.189       1.716      -0.662
   full:       -0.104       1.645      -0.637       4.493

           -------------------------------------------------
          | TOTAL ENERGY              -34.754528170260 Eh   |
          | GRADIENT NORM               0.000292712500 Eh/α |
          | HOMO-LUMO GAP               4.154256934812 eV   |
           -------------------------------------------------

 * finished run on 2023/01/23 at 14:06:50.756
