   * xtb version 6.5.1 (fef0646) compiled by 'conda@b96dff2e9fd6' on 2023-01-04
          program call               : xtb init.xyz --opt -c 1 -u 0 -P 16 --alpb water

   ID    Z sym.   atoms
    1    7 N      1
    2    6 C      2-9
    3    1 H      10-21

      * Solvation model:               ALPB
        Solvent                        water
        Solvent mass                       1.8000E+01 g/mol
          :  Hamiltonian                  GFN2-xTB          :
 * total energy  :   -25.8289971 Eh     change       -0.2372147E-10 Eh
 * total energy  :   -25.8309397 Eh     change       -0.1942563E-02 Eh
 * total energy  :   -25.8311517 Eh     change       -0.2120407E-03 Eh
 * total energy  :   -25.8311907 Eh     change       -0.3897573E-04 Eh
 * total energy  :   -25.8312161 Eh     change       -0.2537355E-04 Eh
 * total energy  :   -25.8312294 Eh     change       -0.1332248E-04 Eh
 * total energy  :   -25.8312481 Eh     change       -0.1864459E-04 Eh
 * total energy  :   -25.8312579 Eh     change       -0.9817185E-05 Eh
 * total energy  :   -25.8312643 Eh     change       -0.6462013E-05 Eh
 * total energy  :   -25.8312691 Eh     change       -0.4741321E-05 Eh
   *** GEOMETRY OPTIMIZATION CONVERGED AFTER 10 ITERATIONS ***

 final structure:
================
21
 xtb: 6.5.1 (fef0646)
N            3.20392152188855       -0.86045138485674        1.09396668850019
C            2.47927404283484       -0.09204855664422        0.03582113312667
C            0.98929820094325       -0.39513570709470        0.13741740286755
C            3.03100431605305       -0.44352955133481       -1.32648279973481
C            3.56815837742001        0.54920281683099       -2.13530536216707
C            4.05736211142729        0.24158136893779       -3.39318929105320
C            4.01750633369638       -1.06397424635732       -3.85283262899751
C            3.48402839200178       -2.05983947825823       -3.05121027779133
C            2.99273745305882       -1.75237061303032       -1.79528940152744
H            4.20705456549793       -0.64306788705231        1.08139965353935
H            3.08821653324930       -1.86842839346481        0.93388934148070
H            2.82309421104983       -0.63305282798070        2.02039907534366
H            2.64533811412531        0.97231440426409        0.21818698224748
H            0.79034558917651       -1.45231609809615       -0.01034901155604
H            0.45208379613959        0.15100659944110       -0.63195707651939
H            0.59436750435944       -0.08794282149506        1.10145806786594
H            3.60122471509695        1.57129790590451       -1.78934400778160
H            4.47024280583646        1.02039043499266       -4.01653349665011
H            4.39785994268976       -1.30405241900854       -4.83439347886824
H            3.44880037511408       -3.07714162889734       -3.41081051335326
H            2.56656109834086       -2.54571191679988       -1.20059099897159

          :  Hamiltonian                  GFN2-xTB          :
         :: total energy             -25.831269086665 Eh    ::
         :: gradient norm              0.000195319149 Eh/a0 ::
         :: HOMO-LUMO gap              4.753482225932 eV    ::
         :: SCC energy               -26.284669878705 Eh    ::
         :: -> dispersion             -0.015124136587 Eh    ::
         :: -> Gsolv                  -0.112751022374 Eh    ::
         :: repulsion energy           0.453313046238 Eh    ::

    * Orbital Energies and Occupations

         #    Occupation            Energy/Eh            Energy/eV
      -------------------------------------------------------------
         1        2.0000           -0.6969093             -18.9639
       ...           ...                  ...                  ...
        12        2.0000           -0.5268446             -14.3362
        13        2.0000           -0.5117547             -13.9256
        14        2.0000           -0.4990685             -13.5803
        15        2.0000           -0.4908079             -13.3556
        16        2.0000           -0.4851881             -13.2026
        17        2.0000           -0.4812685             -13.0960
        18        2.0000           -0.4747615             -12.9189
        19        2.0000           -0.4685078             -12.7487
        20        2.0000           -0.4546366             -12.3713
        21        2.0000           -0.4302485             -11.7077
        22        2.0000           -0.4256749             -11.5832
        23        2.0000           -0.4102570             -11.1637
        24        2.0000           -0.4089298             -11.1275 (HOMO)
        25                         -0.2342426              -6.3741 (LUMO)
        26                         -0.2287110              -6.2235
        27                         -0.1055726              -2.8728
        28                         -0.0439037              -1.1947
        29                          0.0484008               1.3171
        30                          0.0646874               1.7602
        31                          0.0971053               2.6424
        32                          0.1054951               2.8707
        33                          0.1197170               3.2577
        34                          0.1507694               4.1026
        35                          0.1718787               4.6771
       ...                                ...                  ...
        48                          0.6576220              17.8948
      -------------------------------------------------------------
                  HL-Gap            0.1746873 Eh            4.7535 eV

     #   Z          covCN         q      C6AA      α(0)
     1   7 N        3.486    -0.169    24.636     7.372
     2   6 C        3.786     0.027    20.138     6.392
     3   6 C        3.756    -0.149    23.441     6.903
     4   6 C        2.973     0.003    27.948     8.672
     5   6 C        2.924    -0.042    29.053     8.839
     6   6 C        2.919    -0.031    28.782     8.798
     7   6 C        2.920    -0.031    28.782     8.798
     8   6 C        2.919    -0.033    28.825     8.804
     9   6 C        2.923    -0.044    29.084     8.844
    10   1 H        0.859     0.310     0.685     1.296
    11   1 H        0.859     0.302     0.707     1.317
    12   1 H        0.859     0.316     0.669     1.281
    13   1 H        0.924     0.105     1.743     2.065
    14   1 H        0.925     0.077     2.015     2.220
    15   1 H        0.925     0.070     2.088     2.260
    16   1 H        0.925     0.079     1.988     2.205
    17   1 H        0.926     0.052     2.291     2.367
    18   1 H        0.926     0.032     2.560     2.502
    19   1 H        0.926     0.026     2.643     2.542
    20   1 H        0.926     0.037     2.491     2.468
    21   1 H        0.926     0.065     2.144     2.290

Wiberg/Mayer (AO) data.
largest (>0.10) Wiberg bond orders for each atom

     #   Z sym  total        # sym  WBO       # sym  WBO       # sym  WBO
 ---------------------------------------------------------------------------
     1   7 N    3.650 --     2 C    0.941    10 H    0.890    11 H    0.889
                            12 H    0.885
     2   6 C    3.936 --     3 C    1.004     4 C    0.995    13 H    0.957
                             1 N    0.941
     3   6 C    3.981 --     2 C    1.004    14 H    0.978    16 H    0.978
                            15 H    0.978
     4   6 C    3.987 --     5 C    1.417     9 C    1.410     2 C    0.995
                             7 C    0.109
     5   6 C    3.990 --     6 C    1.440     4 C    1.417    17 H    0.967
                             8 C    0.111
     6   6 C    3.992 --     7 C    1.442     5 C    1.440    18 H    0.971
                             9 C    0.112
     7   6 C    3.992 --     6 C    1.442     8 C    1.436    19 H    0.972
                             4 C    0.109
     8   6 C    3.992 --     9 C    1.447     7 C    1.436    20 H    0.971
                             5 C    0.111
     9   6 C    3.989 --     8 C    1.447     4 C    1.410    21 H    0.962
                             6 C    0.112
    10   1 H    0.904 --     1 N    0.890
    11   1 H    0.909 --     1 N    0.889
    12   1 H    0.900 --     1 N    0.885
    13   1 H    0.989 --     2 C    0.957
    14   1 H    0.994 --     3 C    0.978
    15   1 H    0.995 --     3 C    0.978
    16   1 H    0.993 --     3 C    0.978
    17   1 H    0.997 --     5 C    0.967
    18   1 H    0.999 --     6 C    0.971
    19   1 H    0.999 --     7 C    0.972
    20   1 H    0.998 --     8 C    0.971
    21   1 H    0.996 --     9 C    0.962
 ---------------------------------------------------------------------------

molecular dipole:
                 x           y           z       tot (Debye)
 q only:        5.709      -1.550       1.999
   full:        5.831      -1.597       1.853      16.073

           -------------------------------------------------
          | TOTAL ENERGY              -25.831269086665 Eh   |
          | GRADIENT NORM               0.000195319149 Eh/α |
          | HOMO-LUMO GAP               4.753482225932 eV   |
           -------------------------------------------------

 * finished run on 2023/01/24 at 16:56:13.587
