   * xtb version 6.5.1 (fef0646) compiled by 'conda@b96dff2e9fd6' on 2023-01-04
          program call               : xtb init.xyz --opt -c 0 -u 0 -P 16 --alpb water

   ID    Z sym.   atoms
    1    7 N      1
    2    6 C      2-12, 14-18
    3    9 F      13
    4   17 Cl     19
    5    1 H      20-36

      * Solvation model:               ALPB
        Solvent                        water
        Solvent mass                       1.8000E+01 g/mol
          :  Hamiltonian                  GFN2-xTB          :
 * total energy  :   -55.1403761 Eh     change       -0.1236536E-08 Eh
 * total energy  :   -55.1453725 Eh     change       -0.4996364E-02 Eh
 * total energy  :   -55.1468657 Eh     change       -0.1493191E-02 Eh
 * total energy  :   -55.1475551 Eh     change       -0.6894487E-03 Eh
 * total energy  :   -55.1481538 Eh     change       -0.5986681E-03 Eh
 * total energy  :   -55.1485759 Eh     change       -0.4221397E-03 Eh
 * total energy  :   -55.1488620 Eh     change       -0.2860564E-03 Eh
 * total energy  :   -55.1490232 Eh     change       -0.1611799E-03 Eh
 * total energy  :   -55.1491249 Eh     change       -0.1017401E-03 Eh
 * total energy  :   -55.1492558 Eh     change       -0.1309261E-03 Eh
 * total energy  :   -55.1507480 Eh     change       -0.1778681E-04 Eh
 * total energy  :   -55.1507645 Eh     change       -0.1651225E-04 Eh
 * total energy  :   -55.1507870 Eh     change       -0.2254467E-04 Eh
 * total energy  :   -55.1508105 Eh     change       -0.2341489E-04 Eh
 * total energy  :   -55.1508354 Eh     change       -0.2494061E-04 Eh
 * total energy  :   -55.1508444 Eh     change       -0.8965439E-05 Eh
 * total energy  :   -55.1508541 Eh     change       -0.9731239E-05 Eh
 * total energy  :   -55.1508613 Eh     change       -0.7235844E-05 Eh
 * total energy  :   -55.1508655 Eh     change       -0.4133837E-05 Eh
   *** GEOMETRY OPTIMIZATION CONVERGED AFTER 47 ITERATIONS ***

 final structure:
================
36
 xtb: 6.5.1 (fef0646)
N            2.79753619565822        0.40888540264424        2.79706362979532
C            2.33795435595761       -0.83536425541827        2.14862812564368
C            2.89895717359176       -0.90981507409602        0.72907150953071
C            4.39764150364216       -1.01792261091367        0.73672217353639
C            5.02628784732924       -2.25530457185207        0.82894768930530
C            6.40239303856618       -2.35261179019771        0.85568669437199
C            7.20277990166679       -1.20813050149543        0.79411997570798
C            8.65274523879642       -1.24553981229999        0.80587890426078
C            9.41966566256496       -2.33913753765977        0.68668910152562
C           10.86986769759370       -2.37040367151273        0.68110848390103
C           11.65609696071311       -1.25724924037566        0.99198338870498
C           13.02718659325017       -1.37454133377168        0.95873565442564
F           13.78056351313939       -0.27283347805867        1.26866055952661
C           13.67816763108883       -2.54826313551864        0.63072061989322
C           12.89824260597587       -3.65270628481665        0.32628726421359
C           11.52026986905306       -3.56561612633294        0.35425335365964
C            6.56333903088204        0.03327652321143        0.71645853570966
C            5.18626029324548        0.12747201241084        0.68702861907960
Cl           2.27913347856745        2.87024371438628        1.05062340773018
H            2.39031387834720        0.53000961241441        3.72643091161446
H            2.53932636122911        1.24331047559182        2.20957266940439
H            3.81961594327031        0.41670976544942        2.85948657848853
H            1.24996909033743       -0.82627249353874        2.10472648954912
H            2.67463018278481       -1.69317160797628        2.73244921736528
H            2.60027842332650       -0.00619920987776        0.19583243394946
H            2.46831214929439       -1.77242476482114        0.22243534319399
H            4.42846772472203       -3.15356140933083        0.87232200960172
H            6.86112349471242       -3.32561327582880        0.93144850997112
H            9.12133717280224       -0.27409677986159        0.89340734290365
H            8.95417303621988       -3.30564201342112        0.55453202370653
H           11.21914193940747       -0.31130176820311        1.26578846044845
H           14.75480961806232       -2.58586745565929        0.61953191891523
H           13.37602943774834       -4.58440828952610        0.06785230986349
H           10.92844686206396       -4.43559216440825        0.11357168939037
H            7.15941304847116        0.93388543095425        0.66818305826934
H            4.71380304592429        1.09704771970942        0.60682134283600

          :  Hamiltonian                  GFN2-xTB          :
         :: total energy             -55.150865461541 Eh    ::
         :: gradient norm              0.000336370599 Eh/a0 ::
         :: HOMO-LUMO gap              2.725045442860 eV    ::
         :: SCC energy               -55.993460379083 Eh    ::
         :: -> dispersion             -0.034334965223 Eh    ::
         :: -> Gsolv                  -0.077011764270 Eh    ::
         :: repulsion energy           0.842885658463 Eh    ::

    * Orbital Energies and Occupations

         #    Occupation            Energy/Eh            Energy/eV
      -------------------------------------------------------------
         1        2.0000           -1.0065975             -27.3909
       ...           ...                  ...                  ...
        38        2.0000           -0.4444196             -12.0933
        39        2.0000           -0.4403836             -11.9834
        40        2.0000           -0.4352974             -11.8450
        41        2.0000           -0.4315148             -11.7421
        42        2.0000           -0.4192680             -11.4089
        43        2.0000           -0.4138301             -11.2609
        44        2.0000           -0.4119271             -11.2091
        45        2.0000           -0.4102470             -11.1634
        46        2.0000           -0.4028575             -10.9623
        47        2.0000           -0.4013170             -10.9204
        48        2.0000           -0.4003216             -10.8933
        49        2.0000           -0.3993655             -10.8673
        50        2.0000           -0.3718307             -10.1180 (HOMO)
        51                         -0.2716871              -7.3930 (LUMO)
        52                         -0.2314139              -6.2971
        53                         -0.2187196              -5.9517
        54                         -0.2146063              -5.8397
        55                         -0.1645944              -4.4788
        56                         -0.0926675              -2.5216
        57                         -0.0718313              -1.9546
        58                         -0.0221537              -0.6028
        59                          0.0286271               0.7790
        60                          0.0825427               2.2461
        61                          0.0925257               2.5178
       ...                                ...                  ...
        98                          0.7000653              19.0497
      -------------------------------------------------------------
                  HL-Gap            0.1001436 Eh            2.7250 eV

     #   Z          covCN         q      C6AA      α(0)
     1   7 N        3.484    -0.165    24.553     7.359
     2   6 C        3.733    -0.025    21.105     6.557
     3   6 C        3.809    -0.088    22.166     6.702
     4   6 C        2.970     0.014    27.687     8.631
     5   6 C        2.921    -0.044    29.099     8.846
     6   6 C        2.922    -0.038    28.951     8.824
     7   6 C        2.970     0.009    27.816     8.651
     8   6 C        2.901    -0.036    28.896     8.814
     9   6 C        2.901    -0.045    29.128     8.849
    10   6 C        2.974     0.020    27.563     8.612
    11   6 C        2.920    -0.057    29.422     8.895
    12   6 C        2.787     0.166    24.407     8.092
    13   9 F        0.786    -0.286    12.162     4.120
    14   6 C        2.916    -0.056    29.398     8.891
    15   6 C        2.923    -0.034    28.841     8.807
    16   6 C        2.927    -0.045    29.113     8.848
    17   6 C        2.927    -0.037    28.925     8.820
    18   6 C        2.920    -0.046    29.136     8.852
    19  17 Cl       0.044    -0.948   124.890    17.008
    20   1 H        0.860     0.305     0.699     1.310
    21   1 H        0.901     0.296     0.721     1.328
    22   1 H        0.859     0.283     0.767     1.372
    23   1 H        0.925     0.106     1.731     2.058
    24   1 H        0.924     0.107     1.720     2.051
    25   1 H        0.924     0.070     2.086     2.259
    26   1 H        0.925     0.076     2.016     2.220
    27   1 H        0.926     0.051     2.305     2.374
    28   1 H        0.926     0.042     2.421     2.433
    29   1 H        0.925     0.038     2.480     2.463
    30   1 H        0.926     0.052     2.290     2.367
    31   1 H        0.926     0.060     2.194     2.317
    32   1 H        0.926     0.062     2.179     2.309
    33   1 H        0.926     0.061     2.184     2.311
    34   1 H        0.926     0.061     2.192     2.315
    35   1 H        0.926     0.026     2.645     2.543
    36   1 H        0.925     0.044     2.396     2.421

Wiberg/Mayer (AO) data.
largest (>0.10) Wiberg bond orders for each atom

     #   Z sym  total        # sym  WBO       # sym  WBO       # sym  WBO
 ---------------------------------------------------------------------------
     1   7 N    3.647 --     2 C    0.968    22 H    0.898    20 H    0.893
                            21 H    0.831
     2   6 C    3.928 --     3 C    0.994     1 N    0.968    23 H    0.967
                            24 H    0.967
     3   6 C    3.990 --     4 C    1.013     2 C    0.994    25 H    0.967
                            26 H    0.964
     4   6 C    3.977 --    18 C    1.398     5 C    1.397     3 C    1.013
     5   6 C    3.990 --     6 C    1.471     4 C    1.397    27 H    0.967
                            17 C    0.101
     6   6 C    3.982 --     5 C    1.471     7 C    1.359    28 H    0.965
                            18 C    0.101
     7   6 C    3.989 --    17 C    1.363     6 C    1.359     8 C    1.116
     8   6 C    3.990 --     9 C    1.755     7 C    1.116    29 H    0.959
     9   6 C    3.986 --     8 C    1.755    10 C    1.116    30 H    0.957
    10   6 C    3.987 --    16 C    1.363    11 C    1.359     9 C    1.116
    11   6 C    3.978 --    12 C    1.429    10 C    1.359    31 H    0.961
                            15 C    0.104
    12   6 C    3.861 --    11 C    1.429    14 C    1.394    13 F    0.909
    13   9 F    1.024 --    12 C    0.909
    14   6 C    3.975 --    15 C    1.424    12 C    1.394    32 H    0.967
    15   6 C    3.989 --    16 C    1.463    14 C    1.424    33 H    0.968
                            11 C    0.104
    16   6 C    3.980 --    15 C    1.463    10 C    1.363    34 H    0.966
    17   6 C    3.982 --    18 C    1.463     7 C    1.363    35 H    0.969
                             5 C    0.101
    18   6 C    3.990 --    17 C    1.463     4 C    1.398    36 H    0.966
                             6 C    0.101
    19  17 Cl   0.102
    20   1 H    0.907 --     1 N    0.893
    21   1 H    0.912 --     1 N    0.831
    22   1 H    0.920 --     1 N    0.898
    23   1 H    0.988 --     2 C    0.967
    24   1 H    0.988 --     2 C    0.967
    25   1 H    0.994 --     3 C    0.967
    26   1 H    0.993 --     3 C    0.964
    27   1 H    0.997 --     5 C    0.967
    28   1 H    0.998 --     6 C    0.965
    29   1 H    0.998 --     8 C    0.959
    30   1 H    0.997 --     9 C    0.957
    31   1 H    0.996 --    11 C    0.961
    32   1 H    0.996 --    14 C    0.967
    33   1 H    0.996 --    15 C    0.968
    34   1 H    0.996 --    16 C    0.966
    35   1 H    0.999 --    17 C    0.969
    36   1 H    0.998 --    18 C    0.966
 ---------------------------------------------------------------------------

molecular dipole:
                 x           y           z       tot (Debye)
 q only:       -0.575      -5.621       2.663
   full:       -0.457      -4.748       2.326      13.489

           -------------------------------------------------
          | TOTAL ENERGY              -55.150865461541 Eh   |
          | GRADIENT NORM               0.000336370599 Eh/α |
          | HOMO-LUMO GAP               2.725045442860 eV   |
           -------------------------------------------------

 * finished run on 2023/01/24 at 14:56:11.203
