   * xtb version 6.5.1 (fef0646) compiled by 'conda@b96dff2e9fd6' on 2023-01-04
          program call               : xtb init.xyz --opt -c 0 -u 0 -P 16 --input xtb.inp

   ID    Z sym.   atoms
    1    7 N      1, 5
    2    6 C      2-4
    3   17 Cl     6
    4    1 H      7-13

          :  Hamiltonian                  GFN2-xTB          :
 * total energy  :   -20.2856600 Eh     change       -0.8456169E-09 Eh
 * total energy  :   -20.3210884 Eh     change       -0.3542839E-01 Eh
 * total energy  :   -20.3253952 Eh     change       -0.4306770E-02 Eh
 * total energy  :   -20.3289077 Eh     change       -0.3512496E-02 Eh
 * total energy  :   -20.3317614 Eh     change       -0.2853772E-02 Eh
 * total energy  :   -20.3343986 Eh     change       -0.2637123E-02 Eh
 * total energy  :   -20.3359004 Eh     change       -0.1501829E-02 Eh
 * total energy  :   -20.3362893 Eh     change       -0.3889395E-03 Eh
 * total energy  :   -20.3365872 Eh     change       -0.2978810E-03 Eh
 * total energy  :   -20.3366258 Eh     change       -0.3856947E-04 Eh
 * total energy  :   -20.3366395 Eh     change       -0.1374101E-04 Eh
 * total energy  :   -20.3366464 Eh     change       -0.6866928E-05 Eh
 * total energy  :   -20.3366561 Eh     change       -0.9758971E-05 Eh
 * total energy  :   -20.3366577 Eh     change       -0.1594423E-05 Eh
   *** GEOMETRY OPTIMIZATION CONVERGED AFTER 14 ITERATIONS ***

 final structure:
================
13
 xtb: 6.5.1 (fef0646)
N            0.96286511437874       -0.31306052862868       -0.07928653761160
C            2.41949903238524       -0.21014512885348       -0.07370899340064
C            2.88248134230182        0.35952663063582        1.27306753886622
C            4.31538746412535        0.49722053151392        1.30643047567327
N            5.45379001325278        0.59151393785865        1.32234753814844
Cl          -0.15037323799543        2.31239218412177        0.69557333660783
H            0.61851979356872       -0.57985674783763       -0.99432291370014
H            0.34081590049501        1.10010393283960        0.31907114273305
H            0.64339132352748       -0.99613810550831        0.60001127752842
H            2.71025766265981        0.47373306433840       -0.87455111845329
H            2.91153473279224       -1.17701799933852       -0.25317437914510
H            2.57782734391283       -0.30093026594096        2.08996971309874
H            2.42521351459539        1.33916849479957        1.43098291965457

          :  Hamiltonian                  GFN2-xTB          :
         :: total energy             -20.336657743147 Eh    ::
         :: gradient norm              0.000650749748 Eh/a0 ::
         :: HOMO-LUMO gap              5.263964802421 eV    ::
         :: SCC energy               -20.593273851445 Eh    ::
         :: -> dispersion             -0.007277678554 Eh    ::
         :: repulsion energy           0.256602228392 Eh    ::

    * Orbital Energies and Occupations

         #    Occupation            Energy/Eh            Energy/eV
      -------------------------------------------------------------
         1        2.0000           -1.0331433             -28.1133
       ...           ...                  ...                  ...
         6        2.0000           -0.5825033             -15.8507
         7        2.0000           -0.5735991             -15.6084
         8        2.0000           -0.5501016             -14.9690
         9        2.0000           -0.5330463             -14.5049
        10        2.0000           -0.5236673             -14.2497
        11        2.0000           -0.5088838             -13.8474
        12        2.0000           -0.4942933             -13.4504
        13        2.0000           -0.4749427             -12.9238
        14        2.0000           -0.4666335             -12.6977
        15        2.0000           -0.4344411             -11.8217
        16        2.0000           -0.4172016             -11.3526
        17        2.0000           -0.4097689             -11.1504
        18        2.0000           -0.4096208             -11.1464 (HOMO)
        19                         -0.2161737              -5.8824 (LUMO)
        20                         -0.2100001              -5.7144
        21                         -0.0707795              -1.9260
        22                          0.0024699               0.0672
        23                          0.0498994               1.3578
        24                          0.0507541               1.3811
        25                          0.0558211               1.5190
        26                          0.0562539               1.5307
        27                          0.0762529               2.0749
        28                          0.0841143               2.2889
        29                          0.1078642               2.9351
       ...                                ...                  ...
        36                          1.1404523              31.0333
      -------------------------------------------------------------
                  HL-Gap            0.1934471 Eh            5.2640 eV

     #   Z          covCN         q      C6AA      α(0)
     1   7 N        2.668    -0.310    27.982     7.856
     2   6 C        3.737     0.017    20.362     6.439
     3   6 C        3.805    -0.071    21.853     6.655
     4   6 C        1.898     0.115    28.268     8.587
     5   7 N        0.911    -0.228    25.992     7.374
     6  17 Cl       0.839    -0.470   114.598    16.377
     7   1 H        0.860     0.169     1.277     1.771
     8   1 H        0.876     0.335     0.616     1.229
     9   1 H        0.860     0.169     1.280     1.772
    10   1 H        0.924     0.061     2.193     2.316
    11   1 H        0.923     0.034     2.529     2.487
    12   1 H        0.924     0.076     2.020     2.223
    13   1 H        0.924     0.103     1.761     2.076

Wiberg/Mayer (AO) data.
largest (>0.10) Wiberg bond orders for each atom

     #   Z sym  total        # sym  WBO       # sym  WBO       # sym  WBO
 ---------------------------------------------------------------------------
     1   7 N    3.216 --     2 C    1.011     9 H    0.958     7 H    0.957
                             8 H    0.184
     2   6 C    3.976 --     1 N    1.011     3 C    0.979    10 H    0.975
                            11 H    0.973
     3   6 C    3.993 --     4 C    1.055     2 C    0.979    12 H    0.944
                            13 H    0.936
     4   6 C    3.948 --     5 N    2.854     3 C    1.055
     5   7 N    3.009 --     4 C    2.854
     6  17 Cl   0.783 --     8 H    0.700
     7   1 H    0.970 --     1 N    0.957
     8   1 H    0.888 --     6 Cl   0.700     1 N    0.184
     9   1 H    0.972 --     1 N    0.958
    10   1 H    0.996 --     2 C    0.975
    11   1 H    0.999 --     2 C    0.973
    12   1 H    0.994 --     3 C    0.944
    13   1 H    0.989 --     3 C    0.936
 ---------------------------------------------------------------------------

molecular dipole:
                 x           y           z       tot (Debye)
 q only:       -0.191      -1.684      -0.493
   full:       -0.882      -1.644      -0.507       4.914

           -------------------------------------------------
          | TOTAL ENERGY              -20.336657743147 Eh   |
          | GRADIENT NORM               0.000650749748 Eh/α |
          | HOMO-LUMO GAP               5.263964802421 eV   |
           -------------------------------------------------

 * finished run on 2023/01/23 at 19:00:24.969
