   * xtb version 6.5.1 (fef0646) compiled by 'conda@b96dff2e9fd6' on 2023-01-04
          program call               : xtb init.xyz --opt -c 0 -u 0 -P 16 --alpb water

   ID    Z sym.   atoms
    1    7 N      1, 5
    2    6 C      2-4
    3   17 Cl     6
    4    1 H      7-13

      * Solvation model:               ALPB
        Solvent                        water
        Solvent mass                       1.8000E+01 g/mol
          :  Hamiltonian                  GFN2-xTB          :
 * total energy  :   -20.3730228 Eh     change       -0.3344880E-10 Eh
 * total energy  :   -20.3779776 Eh     change       -0.4954804E-02 Eh
 * total energy  :   -20.3792441 Eh     change       -0.1266480E-02 Eh
 * total energy  :   -20.3797827 Eh     change       -0.5385407E-03 Eh
 * total energy  :   -20.3804270 Eh     change       -0.6443074E-03 Eh
 * total energy  :   -20.3810933 Eh     change       -0.6662789E-03 Eh
 * total energy  :   -20.3819643 Eh     change       -0.8710132E-03 Eh
 * total energy  :   -20.3822533 Eh     change       -0.2890056E-03 Eh
 * total energy  :   -20.3823939 Eh     change       -0.1406106E-03 Eh
 * total energy  :   -20.3824967 Eh     change       -0.1027769E-03 Eh
 * total energy  :   -20.3831134 Eh     change       -0.5198049E-04 Eh
 * total energy  :   -20.3831530 Eh     change       -0.3959096E-04 Eh
 * total energy  :   -20.3831753 Eh     change       -0.2221292E-04 Eh
 * total energy  :   -20.3831936 Eh     change       -0.1839670E-04 Eh
 * total energy  :   -20.3832110 Eh     change       -0.1730311E-04 Eh
 * total energy  :   -20.3832154 Eh     change       -0.4421751E-05 Eh
 * total energy  :   -20.3832168 Eh     change       -0.1450538E-05 Eh
 * total energy  :   -20.3832274 Eh     change       -0.1060002E-04 Eh
 * total energy  :   -20.3832301 Eh     change       -0.2681260E-05 Eh
   *** GEOMETRY OPTIMIZATION CONVERGED AFTER 25 ITERATIONS ***

 final structure:
================
13
 xtb: 6.5.1 (fef0646)
N            0.91879152132802        0.15146224712484       -0.25005999751670
C            2.35749008978991        0.17687032482532        0.06812208247401
C            2.93413988227060        1.59195937743227       -0.03592771600353
C            2.44018390573009        2.46576313395934        0.99519128145712
N            2.04390430661676        3.16371852649781        1.81182385608129
Cl           0.05144443442509       -2.73650120578324       -0.07993963587553
H            0.56854591136902       -0.84500595557641       -0.19471915772879
H            0.73733991551263        0.48456858113049       -1.20063084419946
H            0.37558949436167        0.70566744201049        0.41653062506640
H            2.87442942791351       -0.47881406606471       -0.63180581886078
H            2.49837749078288       -0.22255628035517        1.07261223600219
H            2.70097220755086        2.03762183985623       -1.00565177445733
H            4.02063141234939        1.54850603494371        0.06375486356039

          :  Hamiltonian                  GFN2-xTB          :
         :: total energy             -20.383230105344 Eh    ::
         :: gradient norm              0.000258171136 Eh/a0 ::
         :: HOMO-LUMO gap              5.087962865988 eV    ::
         :: SCC energy               -20.646011286400 Eh    ::
         :: -> dispersion             -0.006454274273 Eh    ::
         :: -> Gsolv                  -0.082188552210 Eh    ::
         :: repulsion energy           0.262781580293 Eh    ::

    * Orbital Energies and Occupations

         #    Occupation            Energy/Eh            Energy/eV
      -------------------------------------------------------------
         1        2.0000           -1.0100324             -27.4844
       ...           ...                  ...                  ...
         6        2.0000           -0.5822621             -15.8442
         7        2.0000           -0.5716961             -15.5566
         8        2.0000           -0.5632221             -15.3261
         9        2.0000           -0.5368753             -14.6091
        10        2.0000           -0.5169672             -14.0674
        11        2.0000           -0.5020676             -13.6620
        12        2.0000           -0.4744367             -12.9101
        13        2.0000           -0.4684191             -12.7463
        14        2.0000           -0.4594729             -12.5029
        15        2.0000           -0.4288610             -11.6699
        16        2.0000           -0.4066641             -11.0659
        17        2.0000           -0.4030042             -10.9663
        18        2.0000           -0.4028653             -10.9625 (HOMO)
        19                         -0.2158861              -5.8746 (LUMO)
        20                         -0.2084533              -5.6723
        21                         -0.0306564              -0.8342
        22                          0.0755982               2.0571
        23                          0.0845245               2.3000
        24                          0.1031646               2.8073
        25                          0.1108278               3.0158
        26                          0.1130808               3.0771
        27                          0.1133496               3.0844
        28                          0.1155654               3.1447
        29                          0.1155744               3.1449
       ...                                ...                  ...
        36                          1.1299794              30.7483
      -------------------------------------------------------------
                  HL-Gap            0.1869792 Eh            5.0880 eV

     #   Z          covCN         q      C6AA      α(0)
     1   7 N        3.482    -0.164    24.530     7.356
     2   6 C        3.736    -0.017    20.971     6.535
     3   6 C        3.804    -0.085    22.117     6.695
     4   6 C        1.896     0.128    27.984     8.544
     5   7 N        0.911    -0.291    27.509     7.586
     6  17 Cl       0.079    -0.940   124.601    16.989
     7   1 H        0.935     0.302     0.702     1.310
     8   1 H        0.859     0.302     0.707     1.317
     9   1 H        0.859     0.289     0.747     1.354
    10   1 H        0.925     0.118     1.629     1.996
    11   1 H        0.925     0.106     1.734     2.059
    12   1 H        0.924     0.126     1.565     1.956
    13   1 H        0.924     0.127     1.561     1.954

Wiberg/Mayer (AO) data.
largest (>0.10) Wiberg bond orders for each atom

     #   Z sym  total        # sym  WBO       # sym  WBO       # sym  WBO
 ---------------------------------------------------------------------------
     1   7 N    3.645 --     2 C    0.976     9 H    0.901     8 H    0.893
                             7 H    0.816
     2   6 C    3.932 --     3 C    0.984     1 N    0.976    11 H    0.967
                            10 H    0.962
     3   6 C    3.985 --     4 C    1.064     2 C    0.984    12 H    0.929
                            13 H    0.925
     4   6 C    3.940 --     5 N    2.831     3 C    1.064
     5   7 N    2.997 --     4 C    2.831
     6  17 Cl   0.116
     7   1 H    0.909 --     1 N    0.816
     8   1 H    0.909 --     1 N    0.893
     9   1 H    0.916 --     1 N    0.901
    10   1 H    0.986 --     2 C    0.962
    11   1 H    0.989 --     2 C    0.967
    12   1 H    0.984 --     3 C    0.929
    13   1 H    0.984 --     3 C    0.925
 ---------------------------------------------------------------------------

molecular dipole:
                 x           y           z       tot (Debye)
 q only:        2.235       4.288      -1.255
   full:        2.030       3.389      -1.480      10.723

           -------------------------------------------------
          | TOTAL ENERGY              -20.383230105344 Eh   |
          | GRADIENT NORM               0.000258171136 Eh/α |
          | HOMO-LUMO GAP               5.087962865988 eV   |
           -------------------------------------------------

 * finished run on 2023/01/24 at 15:22:40.725
