   * xtb version 6.5.1 (fef0646) compiled by 'conda@b96dff2e9fd6' on 2023-01-04
          program call               : xtb init.xyz --opt -c 1 -u 0 -P 16

   ID    Z sym.   atoms
    1    7 N      1
    2    6 C      2-5
    3    1 H      6-17

          :  Hamiltonian                  GFN2-xTB          :
 * total energy  :   -17.1674696 Eh     change       -0.4576606E-10 Eh
 * total energy  :   -17.1683962 Eh     change       -0.9265429E-03 Eh
 * total energy  :   -17.1684950 Eh     change       -0.9880839E-04 Eh
 * total energy  :   -17.1685091 Eh     change       -0.1415335E-04 Eh
 * total energy  :   -17.1685108 Eh     change       -0.1648484E-05 Eh
   *** GEOMETRY OPTIMIZATION CONVERGED AFTER 5 ITERATIONS ***

 final structure:
================
17
 xtb: 6.5.1 (fef0646)
N            0.93582571615226       -0.06419729757076       -0.04283630204649
C            2.43466813109718       -0.08178436563877       -0.03868607069258
C            2.95120056917655       -1.47952871746016        0.26643138321554
C            4.48338184671996       -1.50766880315992        0.27197476109699
C            5.00557029230871       -2.90584007377901        0.57730769877289
H            0.56937646592653        0.87387698879877       -0.24731945092331
H            0.58357325591933       -0.36653304610338        0.87529294189579
H            0.58391146591565       -0.72112877304617       -0.75209429733324
H            2.78522744280642        0.62579414718609        0.71383850601574
H            2.78557724770886        0.24799124748013       -1.01744067248619
H            2.59105046530548       -2.18453289859639       -0.48538877457535
H            2.59171510682850       -1.80678356139753        1.24399985791166
H            4.85598039666296       -0.80888450257035        1.02197238537357
H            4.85529119169572       -1.18550832686710       -0.70143304477772
H            4.66546932717512       -3.24048090031280        1.55396441193170
H            6.09104399612681       -2.90600652987482        0.57701573856654
H            4.66494708247395       -3.61728458708783       -0.17057907194554

          :  Hamiltonian                  GFN2-xTB          :
         :: total energy             -17.168510774568 Eh    ::
         :: gradient norm              0.000389385430 Eh/a0 ::
         :: HOMO-LUMO gap              7.726546537337 eV    ::
         :: SCC energy               -17.419151568304 Eh    ::
         :: -> dispersion             -0.007088562329 Eh    ::
         :: repulsion energy           0.250637655311 Eh    ::

    * Orbital Energies and Occupations

         #    Occupation            Energy/Eh            Energy/eV
      -------------------------------------------------------------
         1        2.0000           -0.8990519             -24.4644
       ...           ...                  ...                  ...
         4        2.0000           -0.8049622             -21.9041
         5        2.0000           -0.7784919             -21.1838
         6        2.0000           -0.7369045             -20.0522
         7        2.0000           -0.7249248             -19.7262
         8        2.0000           -0.6908522             -18.7990
         9        2.0000           -0.6845540             -18.6277
        10        2.0000           -0.6571556             -17.8821
        11        2.0000           -0.6382896             -17.3687
        12        2.0000           -0.6197660             -16.8647
        13        2.0000           -0.5963907             -16.2286
        14        2.0000           -0.5802769             -15.7901
        15        2.0000           -0.5604247             -15.2499
        16        2.0000           -0.5527602             -15.0414 (HOMO)
        17                         -0.2688148              -7.3148 (LUMO)
        18                         -0.1650646              -4.4916
        19                         -0.1059945              -2.8843
        20                         -0.1051420              -2.8611
        21                         -0.0611403              -1.6637
        22                         -0.0282917              -0.7699
        23                         -0.0170343              -0.4635
        24                         -0.0011781              -0.0321
        25                          0.0189787               0.5164
        26                          0.0380855               1.0364
        27                          0.0491251               1.3368
       ...                                ...                  ...
        32                          0.1746791               4.7533
      -------------------------------------------------------------
                  HL-Gap            0.2839454 Eh            7.7265 eV

     #   Z          covCN         q      C6AA      α(0)
     1   7 N        3.483    -0.128    23.761     7.240
     2   6 C        3.731    -0.034    21.278     6.584
     3   6 C        3.803    -0.082    22.061     6.687
     4   6 C        3.802    -0.061    21.666     6.627
     5   6 C        3.753    -0.116    22.781     6.806
     6   1 H        0.859     0.270     0.810     1.410
     7   1 H        0.859     0.273     0.801     1.402
     8   1 H        0.859     0.273     0.801     1.402
     9   1 H        0.924     0.107     1.725     2.054
    10   1 H        0.924     0.107     1.725     2.054
    11   1 H        0.924     0.063     2.161     2.299
    12   1 H        0.924     0.063     2.161     2.299
    13   1 H        0.924     0.051     2.308     2.376
    14   1 H        0.924     0.051     2.308     2.376
    15   1 H        0.925     0.050     2.320     2.382
    16   1 H        0.925     0.063     2.162     2.300
    17   1 H        0.925     0.050     2.320     2.382

Wiberg/Mayer (AO) data.
largest (>0.10) Wiberg bond orders for each atom

     #   Z sym  total        # sym  WBO       # sym  WBO       # sym  WBO
 ---------------------------------------------------------------------------
     1   7 N    3.675 --     2 C    0.919     6 H    0.913     8 H    0.910
                             7 H    0.910
     2   6 C    3.884 --     3 C    1.008     9 H    0.967    10 H    0.967
                             1 N    0.919
     3   6 C    3.979 --     2 C    1.008     4 C    0.994    12 H    0.972
                            11 H    0.972
     4   6 C    3.989 --     5 C    1.018     3 C    0.994    13 H    0.977
                            14 H    0.977
     5   6 C    3.990 --     4 C    1.018    17 H    0.986    15 H    0.986
                            16 H    0.983
     6   1 H    0.927 --     1 N    0.913
     7   1 H    0.926 --     1 N    0.910
     8   1 H    0.926 --     1 N    0.910
     9   1 H    0.989 --     2 C    0.967
    10   1 H    0.989 --     2 C    0.967
    11   1 H    0.996 --     3 C    0.972
    12   1 H    0.996 --     3 C    0.972
    13   1 H    0.997 --     4 C    0.977
    14   1 H    0.997 --     4 C    0.977
    15   1 H    0.997 --     5 C    0.986
    16   1 H    0.995 --     5 C    0.983
    17   1 H    0.997 --     5 C    0.986
 ---------------------------------------------------------------------------

molecular dipole:
                 x           y           z       tot (Debye)
 q only:        2.728      -0.543       0.011
   full:        2.411      -0.435      -0.013       6.226

           -------------------------------------------------
          | TOTAL ENERGY              -17.168510774568 Eh   |
          | GRADIENT NORM               0.000389385430 Eh/α |
          | HOMO-LUMO GAP               7.726546537337 eV   |
           -------------------------------------------------

 * finished run on 2023/01/23 at 14:12:49.803
