   * xtb version 6.5.1 (fef0646) compiled by 'conda@b96dff2e9fd6' on 2023-01-04
          program call               : xtb init.xyz --opt -c 0 -u 0 -P 16 --input xtb.inp

   ID    Z sym.   atoms
    1    7 N      1
    2    6 C      2-5
    3   17 Cl     6
    4    1 H      7-18

          :  Hamiltonian                  GFN2-xTB          :
 * total energy  :   -22.1347074 Eh     change       -0.1147811E-09 Eh
 * total energy  :   -22.1412002 Eh     change       -0.6492733E-02 Eh
 * total energy  :   -22.1447869 Eh     change       -0.3586681E-02 Eh
 * total energy  :   -22.1476332 Eh     change       -0.2846373E-02 Eh
 * total energy  :   -22.1502308 Eh     change       -0.2597559E-02 Eh
 * total energy  :   -22.1518247 Eh     change       -0.1593953E-02 Eh
 * total energy  :   -22.1519724 Eh     change       -0.1477044E-03 Eh
 * total energy  :   -22.1521371 Eh     change       -0.1646544E-03 Eh
 * total energy  :   -22.1521628 Eh     change       -0.2571813E-04 Eh
 * total energy  :   -22.1521838 Eh     change       -0.2099460E-04 Eh
 * total energy  :   -22.1522001 Eh     change       -0.1633307E-04 Eh
 * total energy  :   -22.1522158 Eh     change       -0.1570364E-04 Eh
 * total energy  :   -22.1522175 Eh     change       -0.1643969E-05 Eh
   *** GEOMETRY OPTIMIZATION CONVERGED AFTER 13 ITERATIONS ***

 final structure:
================
18
 xtb: 6.5.1 (fef0646)
N            1.19246297539264        0.12622914137105       -0.37016085907371
C            2.65456954124546        0.14278641775630       -0.34034011919088
C            3.14535676407289        1.22472053470692        0.61622122194783
C            4.66508111225578        1.21238994756878        0.75898028259760
C            5.14722898288768        2.30656397837544        1.70304690153720
Cl           0.14537021708055       -0.49468942156562        2.29633746668237
H            0.84324482486734       -0.58729587773833       -1.00028674888207
H            0.82895942029329        1.02762449273058       -0.66197704261388
H            0.64463705561494       -0.19926186964241        1.05152887842251
H            3.08514675211428        0.30887075365050       -1.33858672474479
H            2.98553671288454       -0.83673757685482        0.01256799339526
H            2.68365921256365        1.06287615541620        1.59055021141208
H            2.82372183477951        2.20303172314690        0.25062113365533
H            5.12483954492212        1.34977012250057       -0.22287018727629
H            4.98132969893050        0.23932133746086        1.13975160998275
H            4.86250880778770        3.28746971481966        1.32880019696505
H            6.22963632544040        2.27774755941481        1.80142509872597
H            4.70812021686670        2.17622286688258        2.68912068645771

          :  Hamiltonian                  GFN2-xTB          :
         :: total energy             -22.152217491746 Eh    ::
         :: gradient norm              0.000412215229 Eh/a0 ::
         :: HOMO-LUMO gap              9.173847462439 eV    ::
         :: SCC energy               -22.394094109854 Eh    ::
         :: -> dispersion             -0.009762278209 Eh    ::
         :: repulsion energy           0.241843465108 Eh    ::

    * Orbital Energies and Occupations

         #    Occupation            Energy/Eh            Energy/eV
      -------------------------------------------------------------
         1        2.0000           -1.0159019             -27.6441
       ...           ...                  ...                  ...
         8        2.0000           -0.5439465             -14.8015
         9        2.0000           -0.5259820             -14.3127
        10        2.0000           -0.5121539             -13.9364
        11        2.0000           -0.4944745             -13.4553
        12        2.0000           -0.4851305             -13.2011
        13        2.0000           -0.4760187             -12.9531
        14        2.0000           -0.4561393             -12.4122
        15        2.0000           -0.4497687             -12.2388
        16        2.0000           -0.4434406             -12.0666
        17        2.0000           -0.4323148             -11.7639
        18        2.0000           -0.3983845             -10.8406
        19        2.0000           -0.3930239             -10.6947
        20        2.0000           -0.3929886             -10.6938 (HOMO)
        21                         -0.0558559              -1.5199 (LUMO)
        22                          0.0124432               0.3386
        23                          0.0682309               1.8567
        24                          0.0686170               1.8672
        25                          0.0742071               2.0193
        26                          0.0743953               2.0244
        27                          0.0764150               2.0794
        28                          0.0966410               2.6297
        29                          0.1147272               3.1219
        30                          0.1211088               3.2955
        31                          0.1421259               3.8674
       ...                                ...                  ...
        41                          0.3015367               8.2052
      -------------------------------------------------------------
                  HL-Gap            0.3371327 Eh            9.1738 eV

     #   Z          covCN         q      C6AA      α(0)
     1   7 N        2.697    -0.305    27.854     7.838
     2   6 C        3.732     0.007    20.547     6.470
     3   6 C        3.804    -0.074    21.915     6.665
     4   6 C        3.801    -0.054    21.549     6.609
     5   6 C        3.752    -0.105    22.570     6.775
     6  17 Cl       0.837    -0.487   115.203    16.420
     7   1 H        0.860     0.166     1.300     1.786
     8   1 H        0.860     0.167     1.290     1.779
     9   1 H        0.903     0.332     0.623     1.235
    10   1 H        0.923     0.023     2.686     2.563
    11   1 H        0.924     0.052     2.299     2.371
    12   1 H        0.924     0.063     2.168     2.303
    13   1 H        0.924     0.038     2.481     2.463
    14   1 H        0.924     0.030     2.591     2.517
    15   1 H        0.924     0.035     2.513     2.479
    16   1 H        0.925     0.036     2.504     2.475
    17   1 H        0.925     0.037     2.487     2.466
    18   1 H        0.925     0.041     2.435     2.440

Wiberg/Mayer (AO) data.
largest (>0.10) Wiberg bond orders for each atom

     #   Z sym  total        # sym  WBO       # sym  WBO       # sym  WBO
 ---------------------------------------------------------------------------
     1   7 N    3.240 --     2 C    1.004     7 H    0.959     8 H    0.958
                             9 H    0.208
     2   6 C    3.973 --     3 C    1.006     1 N    1.004    11 H    0.974
                            10 H    0.973
     3   6 C    3.993 --     4 C    1.007     2 C    1.006    13 H    0.976
                            12 H    0.973
     4   6 C    3.998 --     5 C    1.019     3 C    1.007    14 H    0.978
                            15 H    0.978
     5   6 C    3.996 --     4 C    1.019    16 H    0.988    18 H    0.987
                            17 H    0.987
     6  17 Cl   0.766 --     9 H    0.678
     7   1 H    0.972 --     1 N    0.959
     8   1 H    0.972 --     1 N    0.958
     9   1 H    0.890 --     6 Cl   0.678     1 N    0.208
    10   1 H    0.999 --     2 C    0.973
    11   1 H    0.997 --     2 C    0.974
    12   1 H    0.996 --     3 C    0.973
    13   1 H    0.999 --     3 C    0.976
    14   1 H    0.999 --     4 C    0.978
    15   1 H    0.999 --     4 C    0.978
    16   1 H    0.999 --     5 C    0.988
    17   1 H    0.998 --     5 C    0.987
    18   1 H    0.998 --     5 C    0.987
 ---------------------------------------------------------------------------

molecular dipole:
                 x           y           z       tot (Debye)
 q only:        0.899       0.503      -1.632
   full:        0.722       0.446      -1.639       4.691

           -------------------------------------------------
          | TOTAL ENERGY              -22.152217491746 Eh   |
          | GRADIENT NORM               0.000412215229 Eh/α |
          | HOMO-LUMO GAP               9.173847462439 eV   |
           -------------------------------------------------

 * finished run on 2023/01/23 at 19:55:29.273
