   * xtb version 6.5.1 (fef0646) compiled by 'conda@b96dff2e9fd6' on 2023-01-04
          program call               : xtb init.xyz --opt -c 0 -u 0 -P 16 --alpb water

   ID    Z sym.   atoms
    1    7 N      1
    2    6 C      2-5
    3   17 Cl     6
    4    1 H      7-18

      * Solvation model:               ALPB
        Solvent                        water
        Solvent mass                       1.8000E+01 g/mol
          :  Hamiltonian                  GFN2-xTB          :
 * total energy  :   -22.1839358 Eh     change       -0.5104788E-09 Eh
 * total energy  :   -22.1872845 Eh     change       -0.3348706E-02 Eh
 * total energy  :   -22.1883068 Eh     change       -0.1022275E-02 Eh
 * total energy  :   -22.1886075 Eh     change       -0.3007594E-03 Eh
 * total energy  :   -22.1888486 Eh     change       -0.2410791E-03 Eh
 * total energy  :   -22.1894683 Eh     change       -0.6197256E-03 Eh
 * total energy  :   -22.1902449 Eh     change       -0.7765550E-03 Eh
 * total energy  :   -22.1909605 Eh     change       -0.7156043E-03 Eh
 * total energy  :   -22.1918581 Eh     change       -0.8975795E-03 Eh
 * total energy  :   -22.1925185 Eh     change       -0.6604747E-03 Eh
 * total energy  :   -22.1938166 Eh     change       -0.1148462E-03 Eh
 * total energy  :   -22.1938880 Eh     change       -0.7136928E-04 Eh
 * total energy  :   -22.1939884 Eh     change       -0.1004867E-03 Eh
 * total energy  :   -22.1940901 Eh     change       -0.1016929E-03 Eh
 * total energy  :   -22.1941329 Eh     change       -0.4279830E-04 Eh
 * total energy  :   -22.1941510 Eh     change       -0.1810734E-04 Eh
 * total energy  :   -22.1941582 Eh     change       -0.7117668E-05 Eh
 * total energy  :   -22.1941649 Eh     change       -0.6736865E-05 Eh
 * total energy  :   -22.1941699 Eh     change       -0.4967183E-05 Eh
   *** GEOMETRY OPTIMIZATION CONVERGED AFTER 24 ITERATIONS ***

 final structure:
================
18
 xtb: 6.5.1 (fef0646)
N            1.36238229366679       -0.45633568525366       -0.13035171715309
C            2.81955921760324       -0.21223144416636       -0.09968548216956
C            3.19290173875377        0.57586480661285        1.14836616810521
C            4.67804626390676        0.93236194089961        1.16561697845867
C            5.04529982144097        1.73450551856650        2.40822212574978
Cl          -0.16156145379735        2.19804223484780       -0.05091578680413
H            1.08289429770740       -0.95283096017474       -0.97863204646117
H            0.84642214060206        0.46023475721620       -0.11145055495868
H            1.06371441599904       -0.98235391448649        0.69449917080446
H            3.09104898920690        0.36485349618326       -0.98313168390267
H            3.34872994630081       -1.16587243021000       -0.11835153162045
H            2.95714413872186       -0.00322353488282        2.04255344872860
H            2.59683797778136        1.49043322036068        1.17453528471669
H            4.92070133629806        1.51776358076433        0.27700711385389
H            5.27389419440818        0.01811535135117        1.13809258327261
H            4.47195133243511        2.65851096662245        2.44640569346816
H            6.10246877527401        1.98803144918073        2.40366428421074
H            4.83257457368661        1.16543064657413        3.31021595170150

          :  Hamiltonian                  GFN2-xTB          :
         :: total energy             -22.194169865070 Eh    ::
         :: gradient norm              0.000698389004 Eh/a0 ::
         :: HOMO-LUMO gap             10.135447195913 eV    ::
         :: SCC energy               -22.444794356530 Eh    ::
         :: -> dispersion             -0.009169043703 Eh    ::
         :: -> Gsolv                  -0.072389221401 Eh    ::
         :: repulsion energy           0.250592158874 Eh    ::

    * Orbital Energies and Occupations

         #    Occupation            Energy/Eh            Energy/eV
      -------------------------------------------------------------
         1        2.0000           -1.0061924             -27.3799
       ...           ...                  ...                  ...
         8        2.0000           -0.5445161             -14.8170
         9        2.0000           -0.5332191             -14.5096
        10        2.0000           -0.5095196             -13.8647
        11        2.0000           -0.4877484             -13.2723
        12        2.0000           -0.4759657             -12.9517
        13        2.0000           -0.4664660             -12.6932
        14        2.0000           -0.4407490             -11.9934
        15        2.0000           -0.4393663             -11.9558
        16        2.0000           -0.4323126             -11.7638
        17        2.0000           -0.4186136             -11.3911
        18        2.0000           -0.4028336             -10.9617
        19        2.0000           -0.4004377             -10.8965
        20        2.0000           -0.4001069             -10.8875 (HOMO)
        21                         -0.0276361              -0.7520 (LUMO)
        22                          0.0709007               1.9293
        23                          0.0952745               2.5926
        24                          0.0994602               2.7065
        25                          0.1167451               3.1768
        26                          0.1174276               3.1954
        27                          0.1194374               3.2501
        28                          0.1197744               3.2592
        29                          0.1253506               3.4110
        30                          0.1334880               3.6324
        31                          0.1549489               4.2164
       ...                                ...                  ...
        41                          0.3176393               8.6434
      -------------------------------------------------------------
                  HL-Gap            0.3724708 Eh           10.1354 eV

     #   Z          covCN         q      C6AA      α(0)
     1   7 N        3.484    -0.170    24.658     7.375
     2   6 C        3.733    -0.026    21.133     6.561
     3   6 C        3.804    -0.078    21.991     6.676
     4   6 C        3.801    -0.062    21.700     6.632
     5   6 C        3.752    -0.112    22.712     6.796
     6  17 Cl       0.047    -0.948   124.922    17.010
     7   1 H        0.860     0.304     0.702     1.313
     8   1 H        0.903     0.292     0.732     1.339
     9   1 H        0.859     0.297     0.723     1.332
    10   1 H        0.925     0.094     1.836     2.119
    11   1 H        0.924     0.104     1.752     2.070
    12   1 H        0.924     0.059     2.207     2.323
    13   1 H        0.924     0.054     2.273     2.358
    14   1 H        0.924     0.037     2.485     2.465
    15   1 H        0.924     0.047     2.361     2.403
    16   1 H        0.925     0.031     2.572     2.508
    17   1 H        0.925     0.038     2.482     2.464
    18   1 H        0.925     0.041     2.442     2.444

Wiberg/Mayer (AO) data.
largest (>0.10) Wiberg bond orders for each atom

     #   Z sym  total        # sym  WBO       # sym  WBO       # sym  WBO
 ---------------------------------------------------------------------------
     1   7 N    3.645 --     2 C    0.967     9 H    0.897     7 H    0.894
                             8 H    0.834
     2   6 C    3.931 --     3 C    1.010    10 H    0.969    11 H    0.968
                             1 N    0.967
     3   6 C    3.992 --     2 C    1.010     4 C    1.006    12 H    0.974
                            13 H    0.973
     4   6 C    3.997 --     5 C    1.019     3 C    1.006    14 H    0.978
                            15 H    0.977
     5   6 C    3.996 --     4 C    1.019    16 H    0.988    18 H    0.987
                            17 H    0.987
     6  17 Cl   0.101
     7   1 H    0.907 --     1 N    0.894
     8   1 H    0.914 --     1 N    0.834
     9   1 H    0.912 --     1 N    0.897
    10   1 H    0.991 --     2 C    0.969
    11   1 H    0.989 --     2 C    0.968
    12   1 H    0.996 --     3 C    0.974
    13   1 H    0.997 --     3 C    0.973
    14   1 H    0.999 --     4 C    0.978
    15   1 H    0.998 --     4 C    0.977
    16   1 H    0.999 --     5 C    0.988
    17   1 H    0.998 --     5 C    0.987
    18   1 H    0.998 --     5 C    0.987
 ---------------------------------------------------------------------------

molecular dipole:
                 x           y           z       tot (Debye)
 q only:        2.983      -4.707      -0.078
   full:        2.466      -4.113      -0.077      12.191

           -------------------------------------------------
          | TOTAL ENERGY              -22.194169865070 Eh   |
          | GRADIENT NORM               0.000698389004 Eh/α |
          | HOMO-LUMO GAP              10.135447195913 eV   |
           -------------------------------------------------

 * finished run on 2023/01/24 at 15:58:36.930
