   * xtb version 6.5.1 (fef0646) compiled by 'conda@b96dff2e9fd6' on 2023-01-04
          program call               : xtb init.xyz --opt -c 0 -u 0 -P 16 --alpb water

   ID    Z sym.   atoms
    1    7 N      1
    2    6 C      2-7, 9, 10
    3    9 F      8
    4   17 Cl     11
    5    1 H      12-22

      * Solvation model:               ALPB
        Solvent                        water
        Solvent mass                       1.8000E+01 g/mol
          :  Hamiltonian                  GFN2-xTB          :
 * total energy  :   -34.9657527 Eh     change       -0.6181509E-09 Eh
 * total energy  :   -34.9712421 Eh     change       -0.5489378E-02 Eh
 * total energy  :   -34.9724852 Eh     change       -0.1243117E-02 Eh
 * total energy  :   -34.9730621 Eh     change       -0.5769294E-03 Eh
 * total energy  :   -34.9739184 Eh     change       -0.8563295E-03 Eh
 * total energy  :   -34.9749002 Eh     change       -0.9818038E-03 Eh
 * total energy  :   -34.9759043 Eh     change       -0.1004022E-02 Eh
 * total energy  :   -34.9767836 Eh     change       -0.8793199E-03 Eh
 * total energy  :   -34.9771696 Eh     change       -0.3860314E-03 Eh
 * total energy  :   -34.9773574 Eh     change       -0.1877811E-03 Eh
 * total energy  :   -34.9782700 Eh     change       -0.1179852E-04 Eh
 * total energy  :   -34.9782816 Eh     change       -0.1161186E-04 Eh
 * total energy  :   -34.9782889 Eh     change       -0.7340471E-05 Eh
 * total energy  :   -34.9782998 Eh     change       -0.1090772E-04 Eh
 * total energy  :   -34.9783081 Eh     change       -0.8280733E-05 Eh
 * total energy  :   -34.9783133 Eh     change       -0.5229576E-05 Eh
 * total energy  :   -34.9783192 Eh     change       -0.5844441E-05 Eh
 * total energy  :   -34.9783252 Eh     change       -0.6061370E-05 Eh
 * total energy  :   -34.9783289 Eh     change       -0.3619126E-05 Eh
   *** GEOMETRY OPTIMIZATION CONVERGED AFTER 30 ITERATIONS ***

 final structure:
================
22
 xtb: 6.5.1 (fef0646)
N            1.03445978599446        0.08464100437148        0.27841063077825
C            2.50974698974546        0.08722099692898        0.24819304199230
C            3.00101109281981       -0.54553109773562       -1.05454022141152
C            4.48619887678238       -0.36657671423685       -1.19407441119852
C            5.36569262545610       -1.32188797793968       -0.69927266169510
C            6.73515300849551       -1.14723703374162       -0.79851734186982
C            7.20713313522450        0.00259633840485       -1.39889419480627
F            8.56021926188234        0.18419844731740       -1.50575580172045
C            6.36374473713994        0.97539264581982       -1.89874236872978
C            4.99849770850905        0.78069716167309       -1.78840018395556
Cl           0.00114394723227        1.52960055568529       -2.20966092465144
H            0.67399921397912        0.55404169977623        1.11192390725865
H            0.66916705235797       -0.86967028141617        0.23310575584792
H            0.66378857184666        0.59533033125658       -0.56454591922100
H            2.89961094430201       -0.46207680854180        1.10567535421047
H            2.85874226161014        1.11833219487924        0.29507328774317
H            2.48885725282057       -0.05469797068861       -1.88352801704186
H            2.75729419325148       -1.60716030023134       -1.07190618930564
H            4.98357188566656       -2.21840203185228       -0.23742157227443
H            7.42967527336466       -1.88149313667067       -0.42386395113235
H            6.77501931007211        1.85734356473364       -2.36285674903799
H            4.32227287143821        1.52683841222097       -2.17720146979030

          :  Hamiltonian                  GFN2-xTB          :
         :: total energy             -34.978328864060 Eh    ::
         :: gradient norm              0.000345451389 Eh/a0 ::
         :: HOMO-LUMO gap              4.507329203079 eV    ::
         :: SCC energy               -35.422349910473 Eh    ::
         :: -> dispersion             -0.016841303149 Eh    ::
         :: -> Gsolv                  -0.079418530938 Eh    ::
         :: repulsion energy           0.444006390222 Eh    ::

    * Orbital Energies and Occupations

         #    Occupation            Energy/Eh            Energy/eV
      -------------------------------------------------------------
         1        2.0000           -1.0062619             -27.3818
       ...           ...                  ...                  ...
        19        2.0000           -0.4900961             -13.3362
        20        2.0000           -0.4844704             -13.1831
        21        2.0000           -0.4834004             -13.1540
        22        2.0000           -0.4742766             -12.9057
        23        2.0000           -0.4616792             -12.5629
        24        2.0000           -0.4438958             -12.0790
        25        2.0000           -0.4390151             -11.9462
        26        2.0000           -0.4248188             -11.5599
        27        2.0000           -0.4143301             -11.2745
        28        2.0000           -0.4035522             -10.9812
        29        2.0000           -0.4010574             -10.9133
        30        2.0000           -0.3999445             -10.8830
        31        2.0000           -0.3988323             -10.8528 (HOMO)
        32                         -0.2331910              -6.3455 (LUMO)
        33                         -0.2293544              -6.2411
        34                         -0.1027256              -2.7953
        35                         -0.0249202              -0.6781
        36                          0.0345909               0.9413
        37                          0.0788381               2.1453
        38                          0.1001359               2.7248
        39                          0.1036031               2.8192
        40                          0.1169186               3.1815
        41                          0.1175637               3.1991
        42                          0.1193677               3.2482
       ...                                ...                  ...
        60                          0.6537570              17.7896
      -------------------------------------------------------------
                  HL-Gap            0.1656413 Eh            4.5073 eV

     #   Z          covCN         q      C6AA      α(0)
     1   7 N        3.484    -0.170    24.673     7.377
     2   6 C        3.734    -0.023    21.071     6.551
     3   6 C        3.810    -0.090    22.201     6.707
     4   6 C        2.970     0.019    27.585     8.615
     5   6 C        2.930    -0.043    29.074     8.843
     6   6 C        2.915    -0.054    29.348     8.883
     7   6 C        2.790     0.164    24.455     8.101
     8   9 F        0.786    -0.287    12.177     4.122
     9   6 C        2.915    -0.053    29.315     8.878
    10   6 C        2.930    -0.039    28.970     8.827
    11  17 Cl       0.050    -0.947   124.863    17.006
    12   1 H        0.859     0.305     0.697     1.308
    13   1 H        0.859     0.300     0.713     1.322
    14   1 H        0.906     0.296     0.720     1.328
    15   1 H        0.924     0.109     1.706     2.043
    16   1 H        0.925     0.098     1.802     2.099
    17   1 H        0.924     0.077     2.012     2.218
    18   1 H        0.925     0.079     1.985     2.203
    19   1 H        0.926     0.076     2.024     2.225
    20   1 H        0.926     0.067     2.123     2.278
    21   1 H        0.926     0.057     2.229     2.335
    22   1 H        0.926     0.059     2.215     2.327

Wiberg/Mayer (AO) data.
largest (>0.10) Wiberg bond orders for each atom

     #   Z sym  total        # sym  WBO       # sym  WBO       # sym  WBO
 ---------------------------------------------------------------------------
     1   7 N    3.643 --     2 C    0.972    13 H    0.895    12 H    0.892
                            14 H    0.830
     2   6 C    3.932 --     3 C    0.992     1 N    0.972    16 H    0.969
                            15 H    0.967
     3   6 C    3.989 --     4 C    1.011     2 C    0.992    18 H    0.968
                            17 H    0.965
     4   6 C    3.989 --     5 C    1.414    10 C    1.410     3 C    1.011
     5   6 C    3.986 --     6 C    1.440     4 C    1.414    19 H    0.965
                             9 C    0.110
     6   6 C    3.987 --     5 C    1.440     7 C    1.406    20 H    0.966
                            10 C    0.111
     7   6 C    3.858 --     6 C    1.406     9 C    1.403     8 F    0.908
     8   9 F    1.022 --     7 C    0.908
     9   6 C    3.989 --    10 C    1.444     7 C    1.403    21 H    0.967
                             5 C    0.110
    10   6 C    3.989 --     9 C    1.444     4 C    1.410    22 H    0.967
                             6 C    0.111
    11  17 Cl   0.103
    12   1 H    0.906 --     1 N    0.892
    13   1 H    0.910 --     1 N    0.895
    14   1 H    0.912 --     1 N    0.830
    15   1 H    0.988 --     2 C    0.967
    16   1 H    0.990 --     2 C    0.969
    17   1 H    0.994 --     3 C    0.965
    18   1 H    0.993 --     3 C    0.968
    19   1 H    0.994 --     5 C    0.965
    20   1 H    0.995 --     6 C    0.966
    21   1 H    0.996 --     9 C    0.967
    22   1 H    0.997 --    10 C    0.967
 ---------------------------------------------------------------------------

molecular dipole:
                 x           y           z       tot (Debye)
 q only:        0.562      -2.877       4.555
   full:        0.270      -2.451       3.943      11.821

           -------------------------------------------------
          | TOTAL ENERGY              -34.978328864060 Eh   |
          | GRADIENT NORM               0.000345451389 Eh/α |
          | HOMO-LUMO GAP               4.507329203079 eV   |
           -------------------------------------------------

 * finished run on 2023/01/24 at 15:46:47.629
