   * xtb version 6.5.1 (fef0646) compiled by 'conda@b96dff2e9fd6' on 2023-01-04
          program call               : xtb init.xyz --opt -c 1 -u 0 -P 16 --alpb water

   ID    Z sym.   atoms
    1    7 N      1
    2    6 C      2-13
    3    1 H      14-27

      * Solvation model:               ALPB
        Solvent                        water
        Solvent mass                       1.8000E+01 g/mol
          :  Hamiltonian                  GFN2-xTB          :
 * total energy  :   -35.4213530 Eh     change       -0.2656222E-09 Eh
 * total energy  :   -35.4252979 Eh     change       -0.3944851E-02 Eh
 * total energy  :   -35.4259689 Eh     change       -0.6709913E-03 Eh
 * total energy  :   -35.4260358 Eh     change       -0.6688096E-04 Eh
 * total energy  :   -35.4260728 Eh     change       -0.3702740E-04 Eh
 * total energy  :   -35.4260909 Eh     change       -0.1813668E-04 Eh
 * total energy  :   -35.4261213 Eh     change       -0.3033599E-04 Eh
 * total energy  :   -35.4261463 Eh     change       -0.2500026E-04 Eh
 * total energy  :   -35.4261610 Eh     change       -0.1476493E-04 Eh
 * total energy  :   -35.4261729 Eh     change       -0.1190389E-04 Eh
 * total energy  :   -35.4268776 Eh     change       -0.1727315E-04 Eh
 * total energy  :   -35.4268963 Eh     change       -0.1871189E-04 Eh
 * total energy  :   -35.4269028 Eh     change       -0.6553638E-05 Eh
 * total energy  :   -35.4269121 Eh     change       -0.9262985E-05 Eh
 * total energy  :   -35.4269238 Eh     change       -0.1167137E-04 Eh
 * total energy  :   -35.4269346 Eh     change       -0.1080910E-04 Eh
 * total energy  :   -35.4269422 Eh     change       -0.7577069E-05 Eh
 * total energy  :   -35.4269475 Eh     change       -0.5287137E-05 Eh
 * total energy  :   -35.4269517 Eh     change       -0.4274126E-05 Eh
   *** GEOMETRY OPTIMIZATION CONVERGED AFTER 50 ITERATIONS ***

 final structure:
================
27
 xtb: 6.5.1 (fef0646)
N            1.18519558732480        0.78496379603656        0.28767155000284
C            2.41534077396644       -0.01733684629254        0.00345221947989
C            3.46194804675545        0.89063758441248       -0.63013849835054
C            2.91340866348549       -0.65527626090019        1.28042603207691
C            2.94093643748986       -2.05929182015977        1.38718369902574
C            3.39151806039329       -2.66465558236054        2.52597652299172
C            3.34386884106194        0.10995225973968        2.33508473387794
C            3.81850339962650       -0.48382514325328        3.52097578161453
C            3.84145602491583       -1.89950773550014        3.62204081111096
C            4.31823819029892       -2.49249981282182        4.80941970729685
C            4.75767571901424       -1.71778169746178        5.84637153779624
C            4.73909198504268       -0.31683568659501        5.74469980467720
C            4.27768228888246        0.28783059714213        4.60950696446005
H            0.84900786273243        1.23737491352853       -0.57113088067167
H            1.39853294349115        1.51509137312949        0.97778148517814
H            0.43961302006877        0.18939172595936        0.66626789065858
H            2.14666342566837       -0.80652621491701       -0.70280503803028
H            3.72319622195009        1.71324003112968        0.02835962054107
H            3.10913358167368        1.28963004274608       -1.57665878571488
H            4.36783887939745        0.32469146473501       -0.82454173216604
H            2.60797958484114       -2.66297078663442        0.55664723438180
H            3.41249784867222       -3.74161303738508        2.60474931445852
H            3.35216628415083        1.18849332620799        2.28653378190233
H            4.33282711594503       -3.57041982938945        4.88513003189745
H            5.12440498345787       -2.17712128177244        6.75265461276804
H            5.09432335492641        0.27578486002903        6.57480848322463
H            4.26560087476713        1.36516976064860        4.53354311551261

          :  Hamiltonian                  GFN2-xTB          :
         :: total energy             -35.426951726159 Eh    ::
         :: gradient norm              0.000184940084 Eh/a0 ::
         :: HOMO-LUMO gap              3.205654947417 eV    ::
         :: SCC energy               -36.070639509472 Eh    ::
         :: -> dispersion             -0.023989039121 Eh    ::
         :: -> Gsolv                  -0.113898575206 Eh    ::
         :: repulsion energy           0.643612180799 Eh    ::

    * Orbital Energies and Occupations

         #    Occupation            Energy/Eh            Energy/eV
      -------------------------------------------------------------
         1        2.0000           -0.6965388             -18.9538
       ...           ...                  ...                  ...
        21        2.0000           -0.4839158             -13.1680
        22        2.0000           -0.4815311             -13.1031
        23        2.0000           -0.4756913             -12.9442
        24        2.0000           -0.4712205             -12.8226
        25        2.0000           -0.4642226             -12.6321
        26        2.0000           -0.4546035             -12.3704
        27        2.0000           -0.4514223             -12.2838
        28        2.0000           -0.4431646             -12.0591
        29        2.0000           -0.4297469             -11.6940
        30        2.0000           -0.4219084             -11.4807
        31        2.0000           -0.4168694             -11.3436
        32        2.0000           -0.4040163             -10.9938
        33        2.0000           -0.3828425             -10.4177 (HOMO)
        34                         -0.2650369              -7.2120 (LUMO)
        35                         -0.2346610              -6.3855
        36                         -0.1935455              -5.2666
        37                         -0.1537186              -4.1829
        38                         -0.0656976              -1.7877
        39                         -0.0409312              -1.1138
        40                          0.0483744               1.3163
        41                          0.0613494               1.6694
        42                          0.0966570               2.6302
        43                          0.1052649               2.8644
        44                          0.1102186               2.9992
       ...                                ...                  ...
        66                          0.6926641              18.8483
      -------------------------------------------------------------
                  HL-Gap            0.1178057 Eh            3.2057 eV

     #   Z          covCN         q      C6AA      α(0)
     1   7 N        3.486    -0.170    24.660     7.375
     2   6 C        3.786     0.027    20.136     6.392
     3   6 C        3.756    -0.150    23.454     6.905
     4   6 C        2.968     0.002    27.970     8.675
     5   6 C        2.919    -0.046    29.137     8.852
     6   6 C        2.917    -0.037    28.910     8.817
     7   6 C        2.922    -0.049    29.226     8.865
     8   6 C        2.986     0.012    27.740     8.640
     9   6 C        2.987     0.011    27.765     8.643
    10   6 C        2.918    -0.039    28.972     8.827
    11   6 C        2.916    -0.033    28.816     8.803
    12   6 C        2.916    -0.034    28.837     8.806
    13   6 C        2.918    -0.042    29.050     8.839
    14   1 H        0.859     0.316     0.668     1.280
    15   1 H        0.859     0.303     0.705     1.316
    16   1 H        0.859     0.310     0.685     1.296
    17   1 H        0.924     0.105     1.737     2.061
    18   1 H        0.925     0.077     2.010     2.217
    19   1 H        0.925     0.079     1.989     2.206
    20   1 H        0.925     0.070     2.083     2.257
    21   1 H        0.926     0.054     2.267     2.355
    22   1 H        0.926     0.034     2.526     2.486
    23   1 H        0.926     0.067     2.122     2.278
    24   1 H        0.926     0.030     2.586     2.515
    25   1 H        0.926     0.025     2.661     2.551
    26   1 H        0.926     0.029     2.596     2.520
    27   1 H        0.926     0.048     2.351     2.398

Wiberg/Mayer (AO) data.
largest (>0.10) Wiberg bond orders for each atom

     #   Z sym  total        # sym  WBO       # sym  WBO       # sym  WBO
 ---------------------------------------------------------------------------
     1   7 N    3.648 --     2 C    0.939    16 H    0.890    15 H    0.890
                            14 H    0.885
     2   6 C    3.935 --     3 C    1.005     4 C    0.994    17 H    0.957
                             1 N    0.939
     3   6 C    3.980 --     2 C    1.005    19 H    0.978    18 H    0.978
                            20 H    0.978
     4   6 C    3.987 --     7 C    1.523     5 C    1.300     2 C    0.994
     5   6 C    3.989 --     6 C    1.557     4 C    1.300    21 H    0.966
     6   6 C    3.991 --     5 C    1.557     9 C    1.280    22 H    0.968
                             7 C    0.117
     7   6 C    3.989 --     4 C    1.523     8 C    1.285    23 H    0.959
                             6 C    0.117
     8   6 C    3.990 --     7 C    1.285    13 C    1.276     9 C    1.250
     9   6 C    3.990 --     6 C    1.280    10 C    1.279     8 C    1.250
    10   6 C    3.991 --    11 C    1.558     9 C    1.279    24 H    0.969
                            13 C    0.119
    11   6 C    3.990 --    10 C    1.558    12 C    1.319    25 H    0.971
    12   6 C    3.992 --    13 C    1.559    11 C    1.319    26 H    0.971
    13   6 C    3.988 --    12 C    1.559     8 C    1.276    27 H    0.967
                            10 C    0.119
    14   1 H    0.900 --     1 N    0.885
    15   1 H    0.908 --     1 N    0.890
    16   1 H    0.904 --     1 N    0.890
    17   1 H    0.989 --     2 C    0.957
    18   1 H    0.994 --     3 C    0.978
    19   1 H    0.993 --     3 C    0.978
    20   1 H    0.995 --     3 C    0.978
    21   1 H    0.997 --     5 C    0.966
    22   1 H    0.998 --     6 C    0.968
    23   1 H    0.995 --     7 C    0.959
    24   1 H    0.999 --    10 C    0.969
    25   1 H    0.999 --    11 C    0.971
    26   1 H    0.999 --    12 C    0.971
    27   1 H    0.997 --    13 C    0.967
 ---------------------------------------------------------------------------

molecular dipole:
                 x           y           z       tot (Debye)
 q only:        2.523       1.590       0.291
   full:        2.574       1.470       0.571       7.673

           -------------------------------------------------
          | TOTAL ENERGY              -35.426951726159 Eh   |
          | GRADIENT NORM               0.000184940084 Eh/α |
          | HOMO-LUMO GAP               3.205654947417 eV   |
           -------------------------------------------------

 * finished run on 2023/01/24 at 14:58:15.961
