   * xtb version 6.5.1 (fef0646) compiled by 'conda@b96dff2e9fd6' on 2023-01-04
          program call               : xtb init.xyz --opt -c 0 -u 0 -P 16 --alpb water

   ID    Z sym.   atoms
    1    7 N      1
    2    6 C      2-9
    3   17 Cl     10
    4    1 H      11-22

      * Solvation model:               ALPB
        Solvent                        water
        Solvent mass                       1.8000E+01 g/mol
          :  Hamiltonian                  GFN2-xTB          :
 * total energy  :   -30.7356797 Eh     change       -0.7751240E-09 Eh
 * total energy  :   -30.7411037 Eh     change       -0.5424053E-02 Eh
 * total energy  :   -30.7425106 Eh     change       -0.1406894E-02 Eh
 * total energy  :   -30.7431621 Eh     change       -0.6514861E-03 Eh
 * total energy  :   -30.7435910 Eh     change       -0.4289536E-03 Eh
 * total energy  :   -30.7441427 Eh     change       -0.5516765E-03 Eh
 * total energy  :   -30.7446509 Eh     change       -0.5081534E-03 Eh
 * total energy  :   -30.7451226 Eh     change       -0.4717632E-03 Eh
 * total energy  :   -30.7453180 Eh     change       -0.1953441E-03 Eh
 * total energy  :   -30.7454159 Eh     change       -0.9797079E-04 Eh
 * total energy  :   -30.7455005 Eh     change       -0.2031216E-04 Eh
 * total energy  :   -30.7455260 Eh     change       -0.2544576E-04 Eh
 * total energy  :   -30.7455512 Eh     change       -0.2528913E-04 Eh
 * total energy  :   -30.7455627 Eh     change       -0.1146817E-04 Eh
 * total energy  :   -30.7455734 Eh     change       -0.1069064E-04 Eh
 * total energy  :   -30.7455846 Eh     change       -0.1121313E-04 Eh
 * total energy  :   -30.7455934 Eh     change       -0.8823616E-05 Eh
 * total energy  :   -30.7455996 Eh     change       -0.6147077E-05 Eh
 * total energy  :   -30.7456026 Eh     change       -0.2985237E-05 Eh
   *** GEOMETRY OPTIMIZATION CONVERGED AFTER 21 ITERATIONS ***

 final structure:
================
22
 xtb: 6.5.1 (fef0646)
N            1.19578773526086        0.38396514203425        0.18790495428826
C            2.66626842408128        0.21052172749792        0.06077100038248
C            3.37644270211646        1.24984795512574        0.92162953247791
C            3.04770884333700       -1.19606049701386        0.45354599722718
C            3.72407187931401       -2.01178133017457       -0.44207515053299
C            4.08435982457585       -3.29997908777301       -0.08743006136350
C            3.76894144243445       -3.78772599802954        1.16898558293417
C            3.09566665350423       -2.97978322093512        2.06945496001113
C            2.73904542407737       -1.69158955371781        1.71468281878040
Cl          -0.27329873830436       -1.60993121369369       -1.57241934941308
H            0.90987148958820        1.32066792338899       -0.10704124016807
H            0.89508326354570        0.22522710883403        1.15251487003848
H            0.68695481667208       -0.31179036393705       -0.41840473910762
H            2.92169718271646        0.35879126195424       -0.99107518379736
H            3.12588015335594        1.12101008656709        1.97008075498094
H            3.10896887035290        2.25508692930941        0.60960787865340
H            4.45092045416396        1.13617280284360        0.81761712635962
H            3.96348905647748       -1.64307113686067       -1.42837474528019
H            4.60522112036581       -3.92756249458670       -0.79570805316950
H            4.04410316823760       -4.79539735526731        1.44332744848411
H            2.84666905651179       -3.35800974409178        3.04970205324893
H            2.22243717761470       -1.07964894147409        2.43834354496506

          :  Hamiltonian                  GFN2-xTB          :
         :: total energy             -30.745602579916 Eh    ::
         :: gradient norm              0.000365645722 Eh/a0 ::
         :: HOMO-LUMO gap              4.737809725136 eV    ::
         :: SCC energy               -31.198328520001 Eh    ::
         :: -> dispersion             -0.017799876557 Eh    ::
         :: -> Gsolv                  -0.070139122778 Eh    ::
         :: repulsion energy           0.452547584498 Eh    ::

    * Orbital Energies and Occupations

         #    Occupation            Energy/Eh            Energy/eV
      -------------------------------------------------------------
         1        2.0000           -1.0057041             -27.3666
       ...           ...                  ...                  ...
        16        2.0000           -0.4832353             -13.1495
        17        2.0000           -0.4756985             -12.9444
        18        2.0000           -0.4745597             -12.9134
        19        2.0000           -0.4663962             -12.6913
        20        2.0000           -0.4614623             -12.5570
        21        2.0000           -0.4462127             -12.1421
        22        2.0000           -0.4229320             -11.5086
        23        2.0000           -0.4188915             -11.3986
        24        2.0000           -0.4037078             -10.9854
        25        2.0000           -0.4013542             -10.9214
        26        2.0000           -0.3996446             -10.8749
        27        2.0000           -0.3995829             -10.8732
        28        2.0000           -0.3979828             -10.8297 (HOMO)
        29                         -0.2238715              -6.0919 (LUMO)
        30                         -0.2198255              -5.9818
        31                         -0.0952124              -2.5909
        32                         -0.0197099              -0.5363
        33                          0.0734676               1.9992
        34                          0.0778347               2.1180
        35                          0.0925098               2.5173
        36                          0.1155874               3.1453
        37                          0.1175374               3.1984
        38                          0.1177664               3.2046
        39                          0.1200580               3.2669
       ...                                ...                  ...
        57                          0.6677510              18.1704
      -------------------------------------------------------------
                  HL-Gap            0.1741113 Eh            4.7378 eV

     #   Z          covCN         q      C6AA      α(0)
     1   7 N        3.486    -0.175    24.779     7.393
     2   6 C        3.787     0.034    20.016     6.372
     3   6 C        3.756    -0.145    23.359     6.891
     4   6 C        2.973     0.011    27.770     8.644
     5   6 C        2.925    -0.035    28.881     8.813
     6   6 C        2.919    -0.032    28.800     8.800
     7   6 C        2.920    -0.034    28.858     8.809
     8   6 C        2.919    -0.035    28.862     8.810
     9   6 C        2.924    -0.040    28.996     8.831
    10  17 Cl       0.063    -0.944   124.774    17.000
    11   1 H        0.859     0.302     0.707     1.317
    12   1 H        0.859     0.290     0.745     1.352
    13   1 H        0.919     0.293     0.729     1.335
    14   1 H        0.924     0.091     1.867     2.137
    15   1 H        0.925     0.076     2.025     2.225
    16   1 H        0.925     0.078     2.004     2.214
    17   1 H        0.925     0.072     2.066     2.248
    18   1 H        0.926     0.039     2.466     2.456
    19   1 H        0.926     0.029     2.601     2.522
    20   1 H        0.926     0.030     2.588     2.516
    21   1 H        0.926     0.039     2.459     2.452
    22   1 H        0.926     0.059     2.212     2.326

Wiberg/Mayer (AO) data.
largest (>0.10) Wiberg bond orders for each atom

     #   Z sym  total        # sym  WBO       # sym  WBO       # sym  WBO
 ---------------------------------------------------------------------------
     1   7 N    3.643 --     2 C    0.945    12 H    0.896    11 H    0.893
                            13 H    0.828
     2   6 C    3.937 --     3 C    1.001     4 C    0.994    14 H    0.959
                             1 N    0.945
     3   6 C    3.982 --     2 C    1.001    17 H    0.979    15 H    0.979
                            16 H    0.979
     4   6 C    3.988 --     5 C    1.418     9 C    1.412     2 C    0.994
                             7 C    0.110
     5   6 C    3.992 --     6 C    1.442     4 C    1.418    18 H    0.968
                             8 C    0.111
     6   6 C    3.992 --     5 C    1.442     7 C    1.442    19 H    0.971
                             9 C    0.112
     7   6 C    3.992 --     6 C    1.442     8 C    1.437    20 H    0.972
                             4 C    0.110
     8   6 C    3.992 --     9 C    1.447     7 C    1.437    21 H    0.971
                             5 C    0.111
     9   6 C    3.990 --     8 C    1.447     4 C    1.412    22 H    0.963
                             6 C    0.112
    10  17 Cl   0.108
    11   1 H    0.908 --     1 N    0.893
    12   1 H    0.916 --     1 N    0.896
    13   1 H    0.914 --     1 N    0.828
    14   1 H    0.991 --     2 C    0.959
    15   1 H    0.994 --     3 C    0.979
    16   1 H    0.993 --     3 C    0.979
    17   1 H    0.995 --     3 C    0.979
    18   1 H    0.999 --     5 C    0.968
    19   1 H    0.999 --     6 C    0.971
    20   1 H    0.999 --     7 C    0.972
    21   1 H    0.998 --     8 C    0.971
    22   1 H    0.997 --     9 C    0.963
 ---------------------------------------------------------------------------

molecular dipole:
                 x           y           z       tot (Debye)
 q only:        2.874       3.733       3.277
   full:        2.436       3.141       2.833      12.407

           -------------------------------------------------
          | TOTAL ENERGY              -30.745602579916 Eh   |
          | GRADIENT NORM               0.000365645722 Eh/α |
          | HOMO-LUMO GAP               4.737809725136 eV   |
           -------------------------------------------------

 * finished run on 2023/01/24 at 16:54:02.065
