   * xtb version 6.5.1 (fef0646) compiled by 'conda@b96dff2e9fd6' on 2023-01-04
          program call               : xtb init.xyz --opt -c 0 -u 0 -P 16 --input xtb.inp

   ID    Z sym.   atoms
    1    7 N      1
    2    6 C      2-9
    3   17 Cl     10
    4    1 H      11-22

          :  Hamiltonian                  GFN2-xTB          :
 * total energy  :   -30.6738418 Eh     change       -0.3113207E-09 Eh
 * total energy  :   -30.6764403 Eh     change       -0.2598502E-02 Eh
 * total energy  :   -30.6804304 Eh     change       -0.3990088E-02 Eh
 * total energy  :   -30.6835200 Eh     change       -0.3089563E-02 Eh
 * total energy  :   -30.6873171 Eh     change       -0.3797107E-02 Eh
 * total energy  :   -30.6939998 Eh     change       -0.6682686E-02 Eh
 * total energy  :   -30.6959030 Eh     change       -0.1903184E-02 Eh
 * total energy  :   -30.6973112 Eh     change       -0.1408206E-02 Eh
 * total energy  :   -30.6992032 Eh     change       -0.1891992E-02 Eh
 * total energy  :   -30.7010062 Eh     change       -0.1803041E-02 Eh
 * total energy  :   -30.7053149 Eh     change       -0.2095627E-04 Eh
 * total energy  :   -30.7053271 Eh     change       -0.1220180E-04 Eh
 * total energy  :   -30.7053361 Eh     change       -0.9008602E-05 Eh
 * total energy  :   -30.7053414 Eh     change       -0.5348609E-05 Eh
 * total energy  :   -30.7053540 Eh     change       -0.1260302E-04 Eh
 * total energy  :   -30.7053622 Eh     change       -0.8233257E-05 Eh
 * total energy  :   -30.7053707 Eh     change       -0.8418597E-05 Eh
 * total energy  :   -30.7053766 Eh     change       -0.5971338E-05 Eh
 * total energy  :   -30.7053796 Eh     change       -0.2972447E-05 Eh
   *** GEOMETRY OPTIMIZATION CONVERGED AFTER 53 ITERATIONS ***

 final structure:
================
22
 xtb: 6.5.1 (fef0646)
N            0.94143913152638        0.04943149716385        0.02360437022614
C            2.40650051501890        0.16855978815944        0.08978308645033
C            2.98897804169881       -1.18452447021214        0.49740707709984
C            2.95682251431952        0.60869499692797       -1.24602170389804
C            3.86704365955930        1.65516307633922       -1.31295380628166
C            4.39118942601163        2.05730750373534       -2.52915947312536
C            4.00588461500444        1.41770173569849       -3.69412718324684
C            3.09798201034644        0.37369776164584       -3.63490660638454
C            2.57655103011209       -0.03197865950077       -2.41941223380353
Cl          -0.11521020225175       -2.35525522144800       -1.25274053759907
H            0.54886752437316       -0.03907068917127        0.95494612130855
H            0.43361065874034       -1.21469654886384       -0.67088434989365
H            0.53063357562777        0.85554943682557       -0.43537017059243
H            2.69638215629713        0.91855940143038        0.84416885849042
H            2.72297950349073       -1.93750397541333       -0.23738672063183
H            2.59770265366218       -1.48901761343134        1.46510340629198
H            4.07151039116567       -1.11919083616716        0.56162113489981
H            4.17135778678920        2.15995392431195       -0.40620601556673
H            5.09873402670608        2.87267852867155       -2.56583445840947
H            4.41173171541404        1.73200636212631       -4.64430765891672
H            2.79444605932585       -0.12971297395103       -4.54078521880281
H            1.87057320706581       -0.84578302487445       -2.38086791762512

          :  Hamiltonian                  GFN2-xTB          :
         :: total energy             -30.705379612784 Eh    ::
         :: gradient norm              0.000220332611 Eh/a0 ::
         :: HOMO-LUMO gap              4.438579034185 eV    ::
         :: SCC energy               -31.148437468758 Eh    ::
         :: -> dispersion             -0.018734459284 Eh    ::
         :: repulsion energy           0.442930383363 Eh    ::

    * Orbital Energies and Occupations

         #    Occupation            Energy/Eh            Energy/eV
      -------------------------------------------------------------
         1        2.0000           -1.0162677             -27.6541
       ...           ...                  ...                  ...
        16        2.0000           -0.4872224             -13.2580
        17        2.0000           -0.4816357             -13.1060
        18        2.0000           -0.4794310             -13.0460
        19        2.0000           -0.4707443             -12.8096
        20        2.0000           -0.4705530             -12.8044
        21        2.0000           -0.4591596             -12.4944
        22        2.0000           -0.4274839             -11.6324
        23        2.0000           -0.4246652             -11.5557
        24        2.0000           -0.4081244             -11.1056
        25        2.0000           -0.4052465             -11.0273
        26        2.0000           -0.3972732             -10.8104
        27        2.0000           -0.3930099             -10.6943
        28        2.0000           -0.3924360             -10.6787 (HOMO)
        29                         -0.2293212              -6.2401 (LUMO)
        30                         -0.2263532              -6.1594
        31                         -0.1001734              -2.7259
        32                         -0.0547289              -1.4892
        33                          0.0188157               0.5120
        34                          0.0683714               1.8605
        35                          0.0696139               1.8943
        36                          0.0734785               1.9995
        37                          0.0751337               2.0445
        38                          0.0762526               2.0749
        39                          0.0951633               2.5895
       ...                                ...                  ...
        57                          0.6609330              17.9849
      -------------------------------------------------------------
                  HL-Gap            0.1631148 Eh            4.4386 eV

     #   Z          covCN         q      C6AA      α(0)
     1   7 N        2.732    -0.300    27.728     7.821
     2   6 C        3.786     0.048    19.785     6.336
     3   6 C        3.757    -0.122    22.887     6.821
     4   6 C        2.974    -0.001    28.039     8.686
     5   6 C        2.924    -0.039    28.965     8.826
     6   6 C        2.919    -0.030    28.751     8.793
     7   6 C        2.920    -0.030    28.761     8.794
     8   6 C        2.920    -0.027    28.686     8.783
     9   6 C        2.923    -0.039    28.981     8.828
    10  17 Cl       0.834    -0.504   115.829    16.464
    11   1 H        0.860     0.169     1.277     1.770
    12   1 H        0.932     0.332     0.620     1.232
    13   1 H        0.860     0.168     1.287     1.777
    14   1 H        0.923     0.022     2.700     2.570
    15   1 H        0.925     0.069     2.093     2.262
    16   1 H        0.925     0.047     2.359     2.402
    17   1 H        0.925     0.048     2.343     2.394
    18   1 H        0.925     0.026     2.644     2.543
    19   1 H        0.926     0.032     2.565     2.504
    20   1 H        0.926     0.032     2.551     2.498
    21   1 H        0.926     0.037     2.492     2.469
    22   1 H        0.926     0.063     2.165     2.301

Wiberg/Mayer (AO) data.
largest (>0.10) Wiberg bond orders for each atom

     #   Z sym  total        # sym  WBO       # sym  WBO       # sym  WBO
 ---------------------------------------------------------------------------
     1   7 N    3.265 --     2 C    0.982    13 H    0.957    11 H    0.957
                            12 H    0.233
     2   6 C    3.971 --     3 C    0.996     4 C    0.994     1 N    0.982
                            14 H    0.963
     3   6 C    3.991 --     2 C    0.996    17 H    0.984    16 H    0.984
                            15 H    0.981
     4   6 C    3.988 --     5 C    1.419     9 C    1.411     2 C    0.994
                             7 C    0.110
     5   6 C    3.992 --     6 C    1.441     4 C    1.419    18 H    0.969
                             8 C    0.111
     6   6 C    3.992 --     7 C    1.442     5 C    1.441    19 H    0.971
                             9 C    0.113
     7   6 C    3.992 --     6 C    1.442     8 C    1.437    20 H    0.971
                             4 C    0.110
     8   6 C    3.992 --     9 C    1.448     7 C    1.437    21 H    0.971
                             5 C    0.111
     9   6 C    3.990 --     8 C    1.448     4 C    1.411    22 H    0.962
                             6 C    0.113
    10  17 Cl   0.751 --    12 H    0.648
    11   1 H    0.971 --     1 N    0.957
    12   1 H    0.890 --    10 Cl   0.648     1 N    0.233
    13   1 H    0.972 --     1 N    0.957
    14   1 H    0.999 --     2 C    0.963
    15   1 H    0.995 --     3 C    0.981
    16   1 H    0.997 --     3 C    0.984
    17   1 H    0.998 --     3 C    0.984
    18   1 H    0.999 --     5 C    0.969
    19   1 H    0.999 --     6 C    0.971
    20   1 H    0.998 --     7 C    0.971
    21   1 H    0.998 --     8 C    0.971
    22   1 H    0.996 --     9 C    0.962
 ---------------------------------------------------------------------------

molecular dipole:
                 x           y           z       tot (Debye)
 q only:        0.868       1.488       0.773
   full:        0.611       1.415       0.822       4.441

           -------------------------------------------------
          | TOTAL ENERGY              -30.705379612784 Eh   |
          | GRADIENT NORM               0.000220332611 Eh/α |
          | HOMO-LUMO GAP               4.438579034185 eV   |
           -------------------------------------------------

 * finished run on 2023/01/23 at 21:08:25.331
