   * xtb version 6.5.1 (fef0646) compiled by 'conda@b96dff2e9fd6' on 2023-01-04
          program call               : xtb init.xyz --opt -c 1 -u 0 -P 16 --alpb water

   ID    Z sym.   atoms
    1    7 N      1
    2    6 C      2-10
    3    1 H      11-22

      * Solvation model:               ALPB
        Solvent                        water
        Solvent mass                       1.8000E+01 g/mol
          :  Hamiltonian                  GFN2-xTB          :
 * total energy  :   -27.9396745 Eh     change       -0.2952625E-09 Eh
 * total energy  :   -27.9419327 Eh     change       -0.2258236E-02 Eh
 * total energy  :   -27.9422189 Eh     change       -0.2861871E-03 Eh
 * total energy  :   -27.9423086 Eh     change       -0.8974745E-04 Eh
 * total energy  :   -27.9423754 Eh     change       -0.6676850E-04 Eh
 * total energy  :   -27.9424179 Eh     change       -0.4250625E-04 Eh
 * total energy  :   -27.9424670 Eh     change       -0.4912789E-04 Eh
 * total energy  :   -27.9425251 Eh     change       -0.5808930E-04 Eh
 * total energy  :   -27.9425729 Eh     change       -0.4774163E-04 Eh
 * total energy  :   -27.9426099 Eh     change       -0.3700073E-04 Eh
 * total energy  :   -27.9426512 Eh     change       -0.9640109E-05 Eh
 * total energy  :   -27.9426567 Eh     change       -0.5566368E-05 Eh
 * total energy  :   -27.9426649 Eh     change       -0.8177114E-05 Eh
 * total energy  :   -27.9426731 Eh     change       -0.8192342E-05 Eh
 * total energy  :   -27.9426806 Eh     change       -0.7475260E-05 Eh
 * total energy  :   -27.9426788 Eh     change        0.1742086E-05 Eh
 * total energy  :   -27.9426871 Eh     change       -0.8312302E-05 Eh
 * total energy  :   -27.9426849 Eh     change        0.2195914E-05 Eh
 * total energy  :   -27.9426886 Eh     change       -0.3617098E-05 Eh
   *** GEOMETRY OPTIMIZATION CONVERGED AFTER 20 ITERATIONS ***

 final structure:
================
22
 xtb: 6.5.1 (fef0646)
N            3.77780585888461        0.34181505986543       -0.80414750715400
C            2.52576098039825       -0.08065375983970       -0.11545578270608
C            2.79616243722650       -1.26271165204291        0.77623106438653
C            3.14732661495136       -1.07742650025926        2.10865602551092
C            3.42645300875393       -2.15842876153056        2.92060046686726
C            3.36580909706458       -3.46082477769713        2.42174316017530
C            3.65327720598741       -4.63624289593350        3.23519480867805
C            3.83563638367561       -4.66171904498118        4.55037453385685
C            3.01537377980469       -3.63727792427741        1.08133557307375
C            2.73297863496939       -2.55596217565846        0.27072690344288
H            3.59938512386983        1.14250466258217       -1.42163286186183
H            4.14966559661272       -0.43411431336071       -1.36439920718578
H            4.48868543624065        0.60693695463610       -0.11208908078185
H            1.78223978898217       -0.34609269451472       -0.86664132472316
H            2.15025891768827        0.75250109197132        0.47786054587260
H            3.19367861412129       -0.08224618889243        2.52440685784351
H            3.70064888221095       -1.99188107725205        3.95000393873675
H            3.70579194411635       -5.56652872867916        2.68291513210525
H            3.77995305649114       -3.78156939334227        5.16711224205274
H            4.04086411611938       -5.58261716835522        5.06845868530336
H            2.95906799719322       -4.63872993063705        0.68006459418598
H            2.45010652463784       -2.72694078180135       -0.75691876767893

          :  Hamiltonian                  GFN2-xTB          :
         :: total energy             -27.942688565199 Eh    ::
         :: gradient norm              0.000587627567 Eh/a0 ::
         :: HOMO-LUMO gap              3.553566729197 eV    ::
         :: SCC energy               -28.452778434869 Eh    ::
         :: -> dispersion             -0.016444533771 Eh    ::
         :: -> Gsolv                  -0.117835220720 Eh    ::
         :: repulsion energy           0.510103236180 Eh    ::

    * Orbital Energies and Occupations

         #    Occupation            Energy/Eh            Energy/eV
      -------------------------------------------------------------
         1        2.0000           -0.6944183             -18.8961
       ...           ...                  ...                  ...
        14        2.0000           -0.5125732             -13.9478
        15        2.0000           -0.5004041             -13.6167
        16        2.0000           -0.4909003             -13.3581
        17        2.0000           -0.4847697             -13.1913
        18        2.0000           -0.4809206             -13.0865
        19        2.0000           -0.4778043             -13.0017
        20        2.0000           -0.4654388             -12.6652
        21        2.0000           -0.4454371             -12.1210
        22        2.0000           -0.4384393             -11.9305
        23        2.0000           -0.4287549             -11.6670
        24        2.0000           -0.4205625             -11.4441
        25        2.0000           -0.4101709             -11.1613
        26        2.0000           -0.3885090             -10.5719 (HOMO)
        27                         -0.2579178              -7.0183 (LUMO)
        28                         -0.2275292              -6.1914
        29                         -0.1820833              -4.9547
        30                         -0.0902166              -2.4549
        31                         -0.0322686              -0.8781
        32                          0.0587508               1.5987
        33                          0.0792676               2.1570
        34                          0.1062182               2.8903
        35                          0.1126987               3.0667
        36                          0.1315051               3.5784
        37                          0.1339721               3.6456
       ...                                ...                  ...
        52                          0.6791413              18.4804
      -------------------------------------------------------------
                  HL-Gap            0.1305912 Eh            3.5536 eV

     #   Z          covCN         q      C6AA      α(0)
     1   7 N        3.485    -0.159    24.430     7.341
     2   6 C        3.737    -0.046    21.484     6.614
     3   6 C        2.970     0.003    27.949     8.672
     4   6 C        2.921    -0.046    29.133     8.851
     5   6 C        2.922    -0.036    28.895     8.815
     6   6 C        2.971     0.015    27.684     8.631
     7   6 C        2.896    -0.037    28.911     8.816
     8   6 C        2.837    -0.092    30.301     9.021
     9   6 C        2.927    -0.038    28.938     8.822
    10   6 C        2.920    -0.046    29.143     8.853
    11   1 H        0.859     0.321     0.655     1.268
    12   1 H        0.859     0.306     0.694     1.305
    13   1 H        0.859     0.307     0.692     1.304
    14   1 H        0.925     0.118     1.629     1.996
    15   1 H        0.925     0.118     1.632     1.998
    16   1 H        0.926     0.061     2.186     2.312
    17   1 H        0.926     0.038     2.470     2.458
    18   1 H        0.925     0.035     2.514     2.480
    19   1 H        0.926     0.046     2.372     2.408
    20   1 H        0.926     0.036     2.509     2.477
    21   1 H        0.926     0.034     2.525     2.485
    22   1 H        0.926     0.061     2.185     2.312

Wiberg/Mayer (AO) data.
largest (>0.10) Wiberg bond orders for each atom

     #   Z sym  total        # sym  WBO       # sym  WBO       # sym  WBO
 ---------------------------------------------------------------------------
     1   7 N    3.653 --     2 C    0.956    12 H    0.892    13 H    0.892
                            11 H    0.884
     2   6 C    3.926 --     3 C    1.010    15 H    0.962    14 H    0.962
                             1 N    0.956
     3   6 C    3.987 --    10 C    1.405     4 C    1.402     2 C    1.010
     4   6 C    3.989 --     5 C    1.463     3 C    1.402    16 H    0.966
                             9 C    0.103
     5   6 C    3.991 --     4 C    1.463     6 C    1.373    17 H    0.966
                            10 C    0.104
     6   6 C    3.989 --     9 C    1.375     5 C    1.373     7 C    1.090
     7   6 C    3.990 --     8 C    1.902     6 C    1.090    18 H    0.964
     8   6 C    3.989 --     7 C    1.902    20 H    0.978    19 H    0.972
     9   6 C    3.991 --    10 C    1.460     6 C    1.375    21 H    0.969
                             4 C    0.103
    10   6 C    3.989 --     9 C    1.460     3 C    1.405    22 H    0.966
                             5 C    0.104
    11   1 H    0.897 --     1 N    0.884
    12   1 H    0.906 --     1 N    0.892
    13   1 H    0.906 --     1 N    0.892
    14   1 H    0.985 --     2 C    0.962
    15   1 H    0.986 --     2 C    0.962
    16   1 H    0.996 --     4 C    0.966
    17   1 H    0.998 --     5 C    0.966
    18   1 H    0.998 --     7 C    0.964
    19   1 H    0.998 --     8 C    0.972
    20   1 H    0.998 --     8 C    0.978
    21   1 H    0.999 --     9 C    0.969
    22   1 H    0.996 --    10 C    0.966
 ---------------------------------------------------------------------------

molecular dipole:
                 x           y           z       tot (Debye)
 q only:        6.899       0.694      -1.476
   full:        7.011       0.516      -1.362      18.200

           -------------------------------------------------
          | TOTAL ENERGY              -27.942688565199 Eh   |
          | GRADIENT NORM               0.000587627567 Eh/α |
          | HOMO-LUMO GAP               3.553566729197 eV   |
           -------------------------------------------------

 * finished run on 2023/01/24 at 15:16:06.501
