   * xtb version 6.5.1 (fef0646) compiled by 'conda@b96dff2e9fd6' on 2023-01-04
          program call               : xtb init.xyz --opt -c 1 -u 0 -P 16 --alpb water

   ID    Z sym.   atoms
    1    7 N      1
    2    6 C      2-7, 10, 11
    3    8 O      8, 9
    4    1 H      12-27

      * Solvation model:               ALPB
        Solvent                        water
        Solvent mass                       1.8000E+01 g/mol
          :  Hamiltonian                  GFN2-xTB          :
 * total energy  :   -36.0553285 Eh     change       -0.4654623E-09 Eh
 * total energy  :   -36.0583343 Eh     change       -0.3005758E-02 Eh
 * total energy  :   -36.0589189 Eh     change       -0.5846257E-03 Eh
 * total energy  :   -36.0590344 Eh     change       -0.1154817E-03 Eh
 * total energy  :   -36.0590957 Eh     change       -0.6130988E-04 Eh
 * total energy  :   -36.0591441 Eh     change       -0.4840989E-04 Eh
 * total energy  :   -36.0592032 Eh     change       -0.5911840E-04 Eh
 * total energy  :   -36.0592494 Eh     change       -0.4616019E-04 Eh
 * total energy  :   -36.0592917 Eh     change       -0.4231853E-04 Eh
 * total energy  :   -36.0593397 Eh     change       -0.4801060E-04 Eh
 * total energy  :   -36.0593775 Eh     change       -0.3783328E-04 Eh
 * total energy  :   -36.0594032 Eh     change       -0.2569662E-04 Eh
 * total energy  :   -36.0594074 Eh     change       -0.4139414E-05 Eh
   *** GEOMETRY OPTIMIZATION CONVERGED AFTER 13 ITERATIONS ***

 final structure:
================
27
 xtb: 6.5.1 (fef0646)
N            3.39041120906444        0.19804193661398       -1.17430726085369
C            2.52187266727869        0.05411785236386        0.01799930144359
C            2.91127426095572        1.03282724619918        1.12819561293421
C            2.14564429179589        0.67345829798060        2.40457047831721
C            2.51513086575833        1.61527998142103        3.54644430093311
C            2.20442529027244        3.07178649052976        3.16026753671062
C            2.64398197028109        3.95382918462529        4.30693739582046
O            1.71457943470846        4.29579167546576        5.19978319182814
O            3.78792293965659        4.31876365535269        4.46250870922805
C            2.96342985962974        3.43513144030827        1.88169832583903
C            2.60534045148959        2.48325310594369        0.74312910438128
H            3.12566242757610       -0.48254513590245       -1.89518070747044
H            4.37293709084827        0.04398614077405       -0.91866389200325
H            3.30099180118100        1.14174081665409       -1.56737528374963
H            2.60785340536886       -0.96492602503560        0.39471018695075
H            1.48581284337505        0.22832290440578       -0.27268642479999
H            3.98032326582894        0.94328800306883        1.34243645803977
H            2.37610428932335       -0.34822710113194        2.70762450370039
H            1.07209040709731        0.73709313095713        2.22008050065721
H            3.58107162769054        1.53735907703032        3.77164280941845
H            1.96763616681577        1.34036214371274        4.44960788519217
H            1.12867618923748        3.18098122201011        2.99443238010743
H            0.81894743330574        3.97570715201081        4.98696346445392
H            4.03335722441075        3.39660805664769        2.09593183823939
H            2.72641594397648        4.46323138601828        1.60048698938622
H            3.17720216218990        2.79305659908549       -0.13113212598247
H            1.54245448088334        2.58699076289070        0.51734472127816

          :  Hamiltonian                  GFN2-xTB          :
         :: total energy             -36.059407383985 Eh    ::
         :: gradient norm              0.000418381260 Eh/a0 ::
         :: HOMO-LUMO gap              4.683954326500 eV    ::
         :: SCC energy               -36.490913477285 Eh    ::
         :: -> dispersion             -0.019612018464 Eh    ::
         :: -> Gsolv                  -0.142273428085 Eh    ::
         :: repulsion energy           0.431417262625 Eh    ::

    * Orbital Energies and Occupations

         #    Occupation            Energy/Eh            Energy/eV
      -------------------------------------------------------------
         1        2.0000           -0.7460794             -20.3019
       ...           ...                  ...                  ...
        20        2.0000           -0.5086905             -13.8422
        21        2.0000           -0.5049961             -13.7416
        22        2.0000           -0.4885804             -13.2949
        23        2.0000           -0.4812412             -13.0952
        24        2.0000           -0.4784693             -13.0198
        25        2.0000           -0.4748832             -12.9222
        26        2.0000           -0.4689837             -12.7617
        27        2.0000           -0.4534720             -12.3396
        28        2.0000           -0.4459829             -12.1358
        29        2.0000           -0.4440195             -12.0824
        30        2.0000           -0.4299516             -11.6996
        31        2.0000           -0.4231519             -11.5145
        32        2.0000           -0.4137779             -11.2595 (HOMO)
        33                         -0.2416458              -6.5755 (LUMO)
        34                         -0.0520415              -1.4161
        35                          0.0325098               0.8846
        36                          0.0502870               1.3684
        37                          0.0594706               1.6183
        38                          0.0696791               1.8961
        39                          0.0837826               2.2798
        40                          0.0845850               2.3017
        41                          0.0948005               2.5797
        42                          0.1071664               2.9161
        43                          0.1115880               3.0365
       ...                                ...                  ...
        60                          0.5970308              16.2460
      -------------------------------------------------------------
                  HL-Gap            0.1721322 Eh            4.6840 eV

     #   Z          covCN         q      C6AA      α(0)
     1   7 N        3.484    -0.158    24.398     7.336
     2   6 C        3.735    -0.047    21.506     6.618
     3   6 C        3.855    -0.032    21.106     6.534
     4   6 C        3.810    -0.076    21.936     6.667
     5   6 C        3.811    -0.058    21.599     6.615
     6   6 C        3.855    -0.055    21.527     6.599
     7   6 C        2.697     0.366    20.798     7.464
     8   8 O        1.659    -0.431    21.468     6.255
     9   8 O        0.857    -0.472    23.176     6.454
    10   6 C        3.808    -0.061    21.674     6.627
    11   6 C        3.807    -0.081    22.045     6.684
    12   1 H        0.859     0.319     0.659     1.272
    13   1 H        0.859     0.309     0.688     1.299
    14   1 H        0.859     0.301     0.710     1.320
    15   1 H        0.925     0.113     1.673     2.023
    16   1 H        0.925     0.113     1.669     2.021
    17   1 H        0.924     0.069     2.099     2.266
    18   1 H        0.924     0.058     2.223     2.332
    19   1 H        0.924     0.059     2.206     2.322
    20   1 H        0.924     0.046     2.373     2.409
    21   1 H        0.924     0.037     2.488     2.467
    22   1 H        0.924     0.061     2.184     2.311
    23   1 H        0.804     0.410     0.466     1.073
    24   1 H        0.924     0.051     2.307     2.375
    25   1 H        0.924     0.035     2.520     2.482
    26   1 H        0.925     0.063     2.161     2.299
    27   1 H        0.924     0.061     2.187     2.313

Wiberg/Mayer (AO) data.
largest (>0.10) Wiberg bond orders for each atom

     #   Z sym  total        # sym  WBO       # sym  WBO       # sym  WBO
 ---------------------------------------------------------------------------
     1   7 N    3.655 --     2 C    0.968    14 H    0.890    13 H    0.890
                            12 H    0.885
     2   6 C    3.925 --     3 C    0.998     1 N    0.968    15 H    0.964
                            16 H    0.964
     3   6 C    3.992 --     2 C    0.998    11 C    0.997     4 C    0.994
                            17 H    0.961
     4   6 C    3.993 --     5 C    1.005     3 C    0.994    19 H    0.974
                            18 H    0.972
     5   6 C    3.991 --     4 C    1.005    21 H    0.976    20 H    0.976
                             6 C    0.964
     6   6 C    3.989 --    10 C    0.987     7 C    0.967     5 C    0.964
                            22 H    0.959
     7   6 C    3.890 --     9 O    1.720     8 O    1.154     6 C    0.967
     8   8 O    2.171 --     7 C    1.154    23 H    0.808     9 O    0.158
     9   8 O    1.990 --     7 C    1.720     8 O    0.158
    10   6 C    3.991 --    11 C    1.006     6 C    0.987    25 H    0.976
                            24 H    0.974
    11   6 C    3.993 --    10 C    1.006     3 C    0.997    27 H    0.973
                            26 H    0.969
    12   1 H    0.898 --     1 N    0.885
    13   1 H    0.905 --     1 N    0.890
    14   1 H    0.909 --     1 N    0.890
    15   1 H    0.987 --     2 C    0.964
    16   1 H    0.987 --     2 C    0.964
    17   1 H    0.995 --     3 C    0.961
    18   1 H    0.996 --     4 C    0.972
    19   1 H    0.996 --     4 C    0.974
    20   1 H    0.998 --     5 C    0.976
    21   1 H    0.998 --     5 C    0.976
    22   1 H    0.996 --     6 C    0.959
    23   1 H    0.832 --     8 O    0.808
    24   1 H    0.997 --    10 C    0.974
    25   1 H    0.999 --    10 C    0.976
    26   1 H    0.996 --    11 C    0.969
    27   1 H    0.996 --    11 C    0.973
 ---------------------------------------------------------------------------

molecular dipole:
                 x           y           z       tot (Debye)
 q only:        4.512      -0.798      -2.980
   full:        4.396      -0.720      -2.946      13.575

           -------------------------------------------------
          | TOTAL ENERGY              -36.059407383985 Eh   |
          | GRADIENT NORM               0.000418381260 Eh/α |
          | HOMO-LUMO GAP               4.683954326500 eV   |
           -------------------------------------------------

 * finished run on 2023/01/24 at 14:56:00.364
