   * xtb version 6.5.1 (fef0646) compiled by 'conda@b96dff2e9fd6' on 2023-01-04
          program call               : xtb init.xyz --opt -c 1 -u 0 -P 16 --input xtb.inp

   ID    Z sym.   atoms
    1    7 N      1
    2    6 C      2-10
    3    1 H      11-22

          :  Hamiltonian                  GFN2-xTB          :
 * total energy  :   -27.8313203 Eh     change       -0.3925713E-09 Eh
 * total energy  :   -27.8337680 Eh     change       -0.2447753E-02 Eh
 * total energy  :   -27.8342591 Eh     change       -0.4911131E-03 Eh
 * total energy  :   -27.8344435 Eh     change       -0.1844109E-03 Eh
 * total energy  :   -27.8346008 Eh     change       -0.1572801E-03 Eh
 * total energy  :   -27.8347195 Eh     change       -0.1186363E-03 Eh
 * total energy  :   -27.8348459 Eh     change       -0.1264822E-03 Eh
 * total energy  :   -27.8349564 Eh     change       -0.1104970E-03 Eh
 * total energy  :   -27.8350131 Eh     change       -0.5663502E-04 Eh
 * total energy  :   -27.8350362 Eh     change       -0.2316456E-04 Eh
 * total energy  :   -27.8350484 Eh     change       -0.1218370E-04 Eh
 * total energy  :   -27.8350600 Eh     change       -0.1155516E-04 Eh
 * total energy  :   -27.8350667 Eh     change       -0.6713982E-05 Eh
 * total energy  :   -27.8350751 Eh     change       -0.8450341E-05 Eh
 * total energy  :   -27.8350842 Eh     change       -0.9094487E-05 Eh
 * total energy  :   -27.8350918 Eh     change       -0.7609758E-05 Eh
 * total energy  :   -27.8351028 Eh     change       -0.1095468E-04 Eh
 * total energy  :   -27.8351080 Eh     change       -0.5193993E-05 Eh
 * total energy  :   -27.8351122 Eh     change       -0.4172577E-05 Eh
   *** GEOMETRY OPTIMIZATION CONVERGED AFTER 19 ITERATIONS ***

 final structure:
================
22
 xtb: 6.5.1 (fef0646)
N            1.71817336961544        0.96020251375155       -0.71201034328834
C            2.59784872798735       -0.07445801727734       -0.02875873826892
C            3.05530366334886        0.44665998610671        1.28935832799667
C            4.30547255201597        0.87283190302845        1.50079480626616
C            4.86087450912851        1.38942406412983        2.73419013519787
C            4.16091941098308        1.39416816575374        3.94519771357569
C            4.74584264797996        1.89652153411376        5.08998847174059
C            6.03536240088818        2.40614478689378        5.05252956510973
C            6.74246270433197        2.40698728870210        3.86055051226491
C            6.16317425589881        1.90089376670886        2.71405323290723
H            1.39137735644880        0.63468525686059       -1.63004297232413
H            2.25063665370990        1.83171539417259       -0.83050228215785
H            0.90379359072589        1.16297273499911       -0.11794068593349
H            3.44270679051506       -0.27741726412966       -0.68768691817289
H            2.00095747780699       -0.98096707158124        0.08423166742188
H            2.31786159165634        0.45517930155641        2.07616905784807
H            5.00785633200950        0.83412990645426        0.67501666549823
H            3.16251160662373        0.98895578021287        3.99785913240776
H            4.19699432894782        1.88861434216265        6.01915564227342
H            6.48779064598646        2.79666847577751        5.95066534484255
H            7.74710840455655        2.79902541044286        3.82697205223676
H            6.72021097883447        1.90049174116040        1.78801961255808

          :  Hamiltonian                  GFN2-xTB          :
         :: total energy             -27.835112160479 Eh    ::
         :: gradient norm              0.000532770075 Eh/a0 ::
         :: HOMO-LUMO gap              3.137314662603 eV    ::
         :: SCC energy               -28.342402584511 Eh    ::
         :: -> dispersion             -0.015581669243 Eh    ::
         :: repulsion energy           0.507334924774 Eh    ::

    * Orbital Energies and Occupations

         #    Occupation            Energy/Eh            Energy/eV
      -------------------------------------------------------------
         1        2.0000           -0.8856502             -24.0998
       ...           ...                  ...                  ...
        14        2.0000           -0.6430038             -17.4970
        15        2.0000           -0.6313556             -17.1801
        16        2.0000           -0.6046898             -16.4544
        17        2.0000           -0.6005012             -16.3405
        18        2.0000           -0.5954248             -16.2023
        19        2.0000           -0.5845648             -15.9068
        20        2.0000           -0.5785169             -15.7422
        21        2.0000           -0.5726273             -15.5820
        22        2.0000           -0.5597905             -15.2327
        23        2.0000           -0.5284897             -14.3809
        24        2.0000           -0.5219579             -14.2032
        25        2.0000           -0.5079986             -13.8233
        26        2.0000           -0.5025193             -13.6742 (HOMO)
        27                         -0.3872252             -10.5369 (LUMO)
        28                         -0.3247447              -8.8368
        29                         -0.2982722              -8.1164
        30                         -0.2448163              -6.6618
        31                         -0.1856194              -5.0510
        32                         -0.1557067              -4.2370
        33                         -0.0883589              -2.4044
        34                         -0.0846880              -2.3045
        35                         -0.0463550              -1.2614
        36                         -0.0192957              -0.5251
        37                          0.0103028               0.2804
       ...                                ...                  ...
        52                          0.5746160              15.6361
      -------------------------------------------------------------
                  HL-Gap            0.1152942 Eh            3.1373 eV

     #   Z          covCN         q      C6AA      α(0)
     1   7 N        3.481    -0.134    23.888     7.259
     2   6 C        3.733    -0.027    21.143     6.563
     3   6 C        2.890    -0.083    30.080     8.992
     4   6 C        2.903    -0.020    28.507     8.755
     5   6 C        2.971     0.009    27.806     8.650
     6   6 C        2.922    -0.028    28.703     8.786
     7   6 C        2.917    -0.022    28.559     8.763
     8   6 C        2.920    -0.014    28.373     8.735
     9   6 C        2.916    -0.022    28.548     8.762
    10   6 C        2.928    -0.026    28.656     8.779
    11   1 H        0.859     0.265     0.828     1.426
    12   1 H        0.859     0.269     0.815     1.414
    13   1 H        0.859     0.269     0.812     1.412
    14   1 H        0.924     0.102     1.770     2.080
    15   1 H        0.924     0.103     1.762     2.076
    16   1 H        0.926     0.058     2.221     2.331
    17   1 H        0.925     0.053     2.288     2.365
    18   1 H        0.926     0.040     2.453     2.449
    19   1 H        0.926     0.053     2.281     2.362
    20   1 H        0.926     0.058     2.224     2.332
    21   1 H        0.926     0.055     2.261     2.352
    22   1 H        0.926     0.044     2.399     2.422

Wiberg/Mayer (AO) data.
largest (>0.10) Wiberg bond orders for each atom

     #   Z sym  total        # sym  WBO       # sym  WBO       # sym  WBO
 ---------------------------------------------------------------------------
     1   7 N    3.666 --    11 H    0.915    12 H    0.913    13 H    0.913
                             2 C    0.889
     2   6 C    3.884 --     3 C    1.031    14 H    0.966    15 H    0.963
                             1 N    0.889
     3   6 C    3.962 --     4 C    1.798     2 C    1.031    16 H    0.960
     4   6 C    3.983 --     3 C    1.798     5 C    1.123    17 H    0.960
     5   6 C    3.988 --    10 C    1.358     6 C    1.355     4 C    1.123
     6   6 C    3.992 --     7 C    1.470     5 C    1.355    18 H    0.966
                             9 C    0.103
     7   6 C    3.991 --     6 C    1.470     8 C    1.421    19 H    0.969
                            10 C    0.101
     8   6 C    3.985 --     9 C    1.429     7 C    1.421    20 H    0.969
     9   6 C    3.990 --    10 C    1.462     8 C    1.429    21 H    0.969
                             6 C    0.103
    10   6 C    3.987 --     9 C    1.462     5 C    1.358    22 H    0.968
                             7 C    0.101
    11   1 H    0.929 --     1 N    0.915
    12   1 H    0.928 --     1 N    0.913
    13   1 H    0.927 --     1 N    0.913
    14   1 H    0.990 --     2 C    0.966
    15   1 H    0.988 --     2 C    0.963
    16   1 H    0.997 --     3 C    0.960
    17   1 H    0.997 --     4 C    0.960
    18   1 H    0.998 --     6 C    0.966
    19   1 H    0.997 --     7 C    0.969
    20   1 H    0.996 --     8 C    0.969
    21   1 H    0.997 --     9 C    0.969
    22   1 H    0.998 --    10 C    0.968
 ---------------------------------------------------------------------------

molecular dipole:
                 x           y           z       tot (Debye)
 q only:        4.536       2.016       0.097
   full:        4.363       2.088      -0.114      12.298

           -------------------------------------------------
          | TOTAL ENERGY              -27.835112160479 Eh   |
          | GRADIENT NORM               0.000532770075 Eh/α |
          | HOMO-LUMO GAP               3.137314662603 eV   |
           -------------------------------------------------

 * finished run on 2023/01/23 at 18:37:53.009
