   * xtb version 6.5.1 (fef0646) compiled by 'conda@b96dff2e9fd6' on 2023-01-04
          program call               : xtb init.xyz --opt -c 1 -u 0 -P 16 --alpb water

   ID    Z sym.   atoms
    1    7 N      1
    2    6 C      2-10
    3    1 H      11-22

      * Solvation model:               ALPB
        Solvent                        water
        Solvent mass                       1.8000E+01 g/mol
          :  Hamiltonian                  GFN2-xTB          :
 * total energy  :   -27.9403647 Eh     change       -0.1048122E-09 Eh
 * total energy  :   -27.9425109 Eh     change       -0.2146203E-02 Eh
 * total energy  :   -27.9427803 Eh     change       -0.2693261E-03 Eh
 * total energy  :   -27.9428683 Eh     change       -0.8801702E-04 Eh
 * total energy  :   -27.9429379 Eh     change       -0.6964802E-04 Eh
 * total energy  :   -27.9429917 Eh     change       -0.5378943E-04 Eh
 * total energy  :   -27.9430480 Eh     change       -0.5625974E-04 Eh
 * total energy  :   -27.9430932 Eh     change       -0.4521077E-04 Eh
 * total energy  :   -27.9431213 Eh     change       -0.2808160E-04 Eh
 * total energy  :   -27.9431342 Eh     change       -0.1290246E-04 Eh
 * total energy  :   -27.9431475 Eh     change       -0.1328829E-04 Eh
 * total energy  :   -27.9431584 Eh     change       -0.1096983E-04 Eh
 * total energy  :   -27.9431670 Eh     change       -0.8561646E-05 Eh
 * total energy  :   -27.9431748 Eh     change       -0.7787009E-05 Eh
 * total energy  :   -27.9431841 Eh     change       -0.9316098E-05 Eh
 * total energy  :   -27.9431939 Eh     change       -0.9790778E-05 Eh
 * total energy  :   -27.9432001 Eh     change       -0.6194624E-05 Eh
 * total energy  :   -27.9432043 Eh     change       -0.4221458E-05 Eh
   *** GEOMETRY OPTIMIZATION CONVERGED AFTER 18 ITERATIONS ***

 final structure:
================
22
 xtb: 6.5.1 (fef0646)
N            1.66925231432997        0.42680835828681       -1.13087982547327
C            2.62269212691678       -0.04276276516718       -0.08634923076604
C            3.08999031766743        1.10332152993902        0.75420618470305
C            4.37196316582225        1.43695860988673        0.88187143227183
C            4.90015388703414        2.52771995352018        1.69033916609155
C            4.17864481459722        3.11613763434250        2.72998568671367
C            4.72191811806316        4.15244157040023        3.46482754208129
C            5.99234926442505        4.62493901717301        3.17591076026859
C            6.72257517647214        4.04591887452563        2.15059168367712
C            6.18451604133550        3.00381055023419        1.42034216101055
H            1.34049557394611       -0.36023046467061       -1.70185722982854
H            2.12840763229614        1.11139137710868       -1.74318828686247
H            0.85910366480144        0.87991657526745       -0.69170973401076
H            3.47241763872323       -0.52793705412606       -0.56560499460794
H            2.11347025995950       -0.77266295921021        0.54638111574818
H            2.32342839502346        1.65634955555534        1.27586857134212
H            5.12359382651915        0.88119999440666        0.33541784517325
H            3.19686957674370        2.75019396233323        2.98601244150995
H            4.15670313831591        4.59497707916048        4.27199924289042
H            6.41434532962419        5.43529038048051        3.75186240112387
H            7.71569559869536        4.40675870932251        1.92581677446228
H            6.76352413868829        2.55791951123136        0.62445629248165

          :  Hamiltonian                  GFN2-xTB          :
         :: total energy             -27.943204306407 Eh    ::
         :: gradient norm              0.000450538796 Eh/a0 ::
         :: HOMO-LUMO gap              3.579591851640 eV    ::
         :: SCC energy               -28.453524248674 Eh    ::
         :: -> dispersion             -0.015610579140 Eh    ::
         :: -> Gsolv                  -0.119863968336 Eh    ::
         :: repulsion energy           0.510367799095 Eh    ::

    * Orbital Energies and Occupations

         #    Occupation            Energy/Eh            Energy/eV
      -------------------------------------------------------------
         1        2.0000           -0.6932840             -18.8652
       ...           ...                  ...                  ...
        14        2.0000           -0.5058054             -13.7637
        15        2.0000           -0.5007271             -13.6255
        16        2.0000           -0.4891722             -13.3111
        17        2.0000           -0.4852209             -13.2035
        18        2.0000           -0.4777724             -13.0008
        19        2.0000           -0.4732213             -12.8770
        20        2.0000           -0.4687232             -12.7546
        21        2.0000           -0.4471592             -12.1678
        22        2.0000           -0.4358345             -11.8597
        23        2.0000           -0.4242501             -11.5444
        24        2.0000           -0.4186202             -11.3912
        25        2.0000           -0.4041223             -10.9967
        26        2.0000           -0.3873293             -10.5398 (HOMO)
        27                         -0.2557818              -6.9602 (LUMO)
        28                         -0.2219464              -6.0395
        29                         -0.1806050              -4.9145
        30                         -0.0819128              -2.2290
        31                         -0.0383179              -1.0427
        32                          0.0554779               1.5096
        33                          0.0796916               2.1685
        34                          0.1009463               2.7469
        35                          0.1251823               3.4064
        36                          0.1292075               3.5159
        37                          0.1417592               3.8575
       ...                                ...                  ...
        52                          0.6831579              18.5897
      -------------------------------------------------------------
                  HL-Gap            0.1315476 Eh            3.5796 eV

     #   Z          covCN         q      C6AA      α(0)
     1   7 N        3.485    -0.163    24.514     7.354
     2   6 C        3.735    -0.038    21.339     6.592
     3   6 C        2.891    -0.058    29.441     8.896
     4   6 C        2.901    -0.041    29.028     8.834
     5   6 C        2.972     0.012    27.747     8.640
     6   6 C        2.923    -0.041    29.020     8.834
     7   6 C        2.918    -0.035    28.872     8.811
     8   6 C        2.920    -0.034    28.846     8.807
     9   6 C        2.917    -0.035    28.864     8.810
    10   6 C        2.928    -0.040    28.997     8.831
    11   1 H        0.859     0.317     0.664     1.276
    12   1 H        0.859     0.310     0.683     1.295
    13   1 H        0.859     0.310     0.684     1.295
    14   1 H        0.925     0.112     1.677     2.025
    15   1 H        0.924     0.122     1.601     1.979
    16   1 H        0.926     0.069     2.097     2.264
    17   1 H        0.925     0.058     2.221     2.331
    18   1 H        0.926     0.051     2.304     2.374
    19   1 H        0.926     0.031     2.575     2.509
    20   1 H        0.926     0.024     2.678     2.559
    21   1 H        0.926     0.027     2.634     2.538
    22   1 H        0.926     0.042     2.420     2.433

Wiberg/Mayer (AO) data.
largest (>0.10) Wiberg bond orders for each atom

     #   Z sym  total        # sym  WBO       # sym  WBO       # sym  WBO
 ---------------------------------------------------------------------------
     1   7 N    3.649 --     2 C    0.957    12 H    0.890    13 H    0.889
                            11 H    0.886
     2   6 C    3.928 --     3 C    1.029    14 H    0.963     1 N    0.957
                            15 H    0.950
     3   6 C    3.984 --     4 C    1.854     2 C    1.029    16 H    0.957
     4   6 C    3.988 --     3 C    1.854     5 C    1.090    17 H    0.959
     5   6 C    3.989 --    10 C    1.375     6 C    1.374     4 C    1.090
                             8 C    0.102
     6   6 C    3.989 --     7 C    1.459     5 C    1.374    18 H    0.965
                             9 C    0.106
     7   6 C    3.992 --     6 C    1.459     8 C    1.430    19 H    0.971
                            10 C    0.106
     8   6 C    3.990 --     9 C    1.432     7 C    1.430    20 H    0.972
                             5 C    0.102
     9   6 C    3.992 --    10 C    1.456     8 C    1.432    21 H    0.971
                             6 C    0.106
    10   6 C    3.988 --     9 C    1.456     5 C    1.375    22 H    0.968
                             7 C    0.106
    11   1 H    0.899 --     1 N    0.886
    12   1 H    0.904 --     1 N    0.890
    13   1 H    0.904 --     1 N    0.889
    14   1 H    0.987 --     2 C    0.963
    15   1 H    0.983 --     2 C    0.950
    16   1 H    0.995 --     3 C    0.957
    17   1 H    0.996 --     4 C    0.959
    18   1 H    0.997 --     6 C    0.965
    19   1 H    0.999 --     7 C    0.971
    20   1 H    0.999 --     8 C    0.972
    21   1 H    0.999 --     9 C    0.971
    22   1 H    0.998 --    10 C    0.968
 ---------------------------------------------------------------------------

molecular dipole:
                 x           y           z       tot (Debye)
 q only:        3.206       0.567      -2.040
   full:        3.282       0.745      -1.997       9.946

           -------------------------------------------------
          | TOTAL ENERGY              -27.943204306407 Eh   |
          | GRADIENT NORM               0.000450538796 Eh/α |
          | HOMO-LUMO GAP               3.579591851640 eV   |
           -------------------------------------------------

 * finished run on 2023/01/24 at 15:08:37.209
