   * xtb version 6.5.1 (fef0646) compiled by 'conda@b96dff2e9fd6' on 2023-01-04
          program call               : xtb init.xyz --opt -c 0 -u 0 -P 16 --alpb water

   ID    Z sym.   atoms
    1    7 N      1
    2    6 C      2-9
    3   17 Cl     10
    4    1 H      11-30

      * Solvation model:               ALPB
        Solvent                        water
        Solvent mass                       1.8000E+01 g/mol
          :  Hamiltonian                  GFN2-xTB          :
 * total energy  :   -34.8460442 Eh     change       -0.3434621E-09 Eh
 * total energy  :   -34.8500690 Eh     change       -0.4024750E-02 Eh
 * total energy  :   -34.8508510 Eh     change       -0.7819583E-03 Eh
 * total energy  :   -34.8511063 Eh     change       -0.2553154E-03 Eh
 * total energy  :   -34.8511879 Eh     change       -0.8160089E-04 Eh
 * total energy  :   -34.8512840 Eh     change       -0.9615610E-04 Eh
 * total energy  :   -34.8513998 Eh     change       -0.1158153E-03 Eh
 * total energy  :   -34.8515346 Eh     change       -0.1347565E-03 Eh
 * total energy  :   -34.8516687 Eh     change       -0.1341256E-03 Eh
 * total energy  :   -34.8517524 Eh     change       -0.8369448E-04 Eh
 * total energy  :   -34.8518288 Eh     change       -0.3321625E-04 Eh
 * total energy  :   -34.8518517 Eh     change       -0.2284229E-04 Eh
 * total energy  :   -34.8518690 Eh     change       -0.1732678E-04 Eh
 * total energy  :   -34.8518784 Eh     change       -0.9402717E-05 Eh
 * total energy  :   -34.8518902 Eh     change       -0.1181216E-04 Eh
 * total energy  :   -34.8518993 Eh     change       -0.9039547E-05 Eh
 * total energy  :   -34.8519067 Eh     change       -0.7468933E-05 Eh
 * total energy  :   -34.8519125 Eh     change       -0.5754494E-05 Eh
 * total energy  :   -34.8519158 Eh     change       -0.3353759E-05 Eh
   *** GEOMETRY OPTIMIZATION CONVERGED AFTER 20 ITERATIONS ***

 final structure:
================
30
 xtb: 6.5.1 (fef0646)
N            0.79917406791844        1.82455537133517       -1.41696728568678
C            2.25193621807018        2.08312557929352       -1.48662726843018
C            2.92615410604918        1.59851308313024       -0.20816091050784
C            4.45138821473956        1.60692696960823       -0.31054993960102
C            5.03742015289353        3.00886054772254       -0.47488742226610
C            6.56435892660194        2.99209762425132       -0.44330994930908
C            7.15352334157308        4.38482236328885       -0.65692405769192
C            8.67990919964831        4.37934673427096       -0.62154617188502
C            9.25711461631553        5.76948187045442       -0.86272854381020
Cl           0.26330827113367       -1.15994969015435       -1.00131569354854
H            0.32242974816975        2.11652683263805       -2.27281161855303
H            0.38685892302606        2.30145315474455       -0.61167448765752
H            0.62225353106141        0.79576469757283       -1.28724731783276
H            2.41831624593376        3.15072268351483       -1.62854886130209
H            2.66148491864569        1.53700107568273       -2.33588214335004
H            2.59102790159858        0.57718062704873       -0.01579723068981
H            2.62236580407456        2.21942575685097        0.63565629703788
H            4.76154504868473        0.98270433305982       -1.15077106886444
H            4.86309422075211        1.15731110394657        0.59531407540115
H            4.67220626010221        3.65126754613750        0.32876554969923
H            4.71677022065229        3.43658128324362       -1.42511695877729
H            6.93485546303797        2.32131472480349       -1.22225915516118
H            6.90647109368914        2.59808160882346        0.51677778850023
H            6.78014833978091        5.05838842604623        0.11790119931630
H            6.82090396240051        4.77310198090404       -1.62229737119291
H            9.05605687545728        3.69341668810221       -1.38417192670727
H            9.01765153557585        4.00917173754316        0.34927719394811
H            8.95397779157170        6.14336902367872       -1.83811817595971
H           10.34355181873367        5.74508691842473       -0.82688256098997
H            8.90400318210803        6.46502934403241       -0.10469598412746

          :  Hamiltonian                  GFN2-xTB          :
         :: total energy             -34.851915828088 Eh    ::
         :: gradient norm              0.000345518641 Eh/a0 ::
         :: HOMO-LUMO gap             10.146142051842 eV    ::
         :: SCC energy               -35.289237227375 Eh    ::
         :: -> dispersion             -0.018313174359 Eh    ::
         :: -> Gsolv                  -0.072754262607 Eh    ::
         :: repulsion energy           0.437435713483 Eh    ::

    * Orbital Energies and Occupations

         #    Occupation            Energy/Eh            Energy/eV
      -------------------------------------------------------------
         1        2.0000           -1.0059794             -27.3741
       ...           ...                  ...                  ...
        20        2.0000           -0.4629833             -12.5984
        21        2.0000           -0.4574597             -12.4481
        22        2.0000           -0.4514430             -12.2844
        23        2.0000           -0.4416946             -12.0191
        24        2.0000           -0.4319309             -11.7534
        25        2.0000           -0.4300885             -11.7033
        26        2.0000           -0.4222564             -11.4902
        27        2.0000           -0.4177205             -11.3668
        28        2.0000           -0.4144590             -11.2780
        29        2.0000           -0.4131969             -11.2437
        30        2.0000           -0.4021423             -10.9428
        31        2.0000           -0.4001852             -10.8896
        32        2.0000           -0.3997145             -10.8768 (HOMO)
        33                         -0.0268506              -0.7306 (LUMO)
        34                          0.0553835               1.5071
        35                          0.0753775               2.0511
        36                          0.0998482               2.7170
        37                          0.1008122               2.7432
        38                          0.1154123               3.1405
        39                          0.1170716               3.1857
        40                          0.1176581               3.2016
        41                          0.1179758               3.2103
        42                          0.1196841               3.2568
        43                          0.1199671               3.2645
       ...                                ...                  ...
        65                          0.3262970               8.8790
      -------------------------------------------------------------
                  HL-Gap            0.3728639 Eh           10.1461 eV

     #   Z          covCN         q      C6AA      α(0)
     1   7 N        3.484    -0.171    24.678     7.378
     2   6 C        3.732    -0.025    21.118     6.559
     3   6 C        3.803    -0.079    22.002     6.678
     4   6 C        3.803    -0.064    21.735     6.637
     5   6 C        3.803    -0.071    21.850     6.655
     6   6 C        3.803    -0.063    21.706     6.633
     7   6 C        3.803    -0.065    21.744     6.639
     8   6 C        3.801    -0.058    21.610     6.619
     9   6 C        3.752    -0.111    22.684     6.792
    10  17 Cl       0.047    -0.948   124.917    17.010
    11   1 H        0.859     0.304     0.703     1.313
    12   1 H        0.859     0.297     0.724     1.333
    13   1 H        0.904     0.292     0.733     1.339
    14   1 H        0.925     0.103     1.755     2.072
    15   1 H        0.925     0.096     1.824     2.112
    16   1 H        0.924     0.057     2.239     2.340
    17   1 H        0.924     0.060     2.202     2.321
    18   1 H        0.924     0.036     2.496     2.471
    19   1 H        0.924     0.036     2.506     2.476
    20   1 H        0.924     0.042     2.429     2.437
    21   1 H        0.924     0.044     2.394     2.419
    22   1 H        0.924     0.029     2.604     2.523
    23   1 H        0.924     0.027     2.634     2.538
    24   1 H        0.924     0.034     2.536     2.490
    25   1 H        0.924     0.035     2.513     2.479
    26   1 H        0.924     0.029     2.608     2.525
    27   1 H        0.924     0.028     2.621     2.532
    28   1 H        0.925     0.037     2.485     2.465
    29   1 H        0.925     0.034     2.528     2.486
    30   1 H        0.925     0.037     2.494     2.470

Wiberg/Mayer (AO) data.
largest (>0.10) Wiberg bond orders for each atom

     #   Z sym  total        # sym  WBO       # sym  WBO       # sym  WBO
 ---------------------------------------------------------------------------
     1   7 N    3.645 --     2 C    0.967    12 H    0.897    11 H    0.894
                            13 H    0.834
     2   6 C    3.930 --     3 C    1.009    15 H    0.969     1 N    0.967
                            14 H    0.967
     3   6 C    3.992 --     2 C    1.009     4 C    1.005    17 H    0.974
                            16 H    0.972
     4   6 C    3.995 --     5 C    1.007     3 C    1.005    18 H    0.977
                            19 H    0.976
     5   6 C    3.996 --     4 C    1.007     6 C    1.007    20 H    0.977
                            21 H    0.975
     6   6 C    3.997 --     7 C    1.007     5 C    1.007    23 H    0.978
                            22 H    0.977
     7   6 C    3.997 --     8 C    1.008     6 C    1.007    24 H    0.977
                            25 H    0.977
     8   6 C    3.997 --     9 C    1.019     7 C    1.008    27 H    0.979
                            26 H    0.979
     9   6 C    3.996 --     8 C    1.019    30 H    0.988    28 H    0.988
                            29 H    0.987
    10  17 Cl   0.101
    11   1 H    0.908 --     1 N    0.894
    12   1 H    0.912 --     1 N    0.897
    13   1 H    0.915 --     1 N    0.834
    14   1 H    0.989 --     2 C    0.967
    15   1 H    0.991 --     2 C    0.969
    16   1 H    0.996 --     3 C    0.972
    17   1 H    0.996 --     3 C    0.974
    18   1 H    0.999 --     4 C    0.977
    19   1 H    0.998 --     4 C    0.976
    20   1 H    0.998 --     5 C    0.977
    21   1 H    0.998 --     5 C    0.975
    22   1 H    0.999 --     6 C    0.977
    23   1 H    0.999 --     6 C    0.978
    24   1 H    0.999 --     7 C    0.977
    25   1 H    0.999 --     7 C    0.977
    26   1 H    0.999 --     8 C    0.979
    27   1 H    0.999 --     8 C    0.979
    28   1 H    0.999 --     9 C    0.988
    29   1 H    0.998 --     9 C    0.987
    30   1 H    0.999 --     9 C    0.988
 ---------------------------------------------------------------------------

molecular dipole:
                 x           y           z       tot (Debye)
 q only:        1.141       5.399      -0.712
   full:        0.903       4.668      -0.614      12.186

           -------------------------------------------------
          | TOTAL ENERGY              -34.851915828088 Eh   |
          | GRADIENT NORM               0.000345518641 Eh/α |
          | HOMO-LUMO GAP              10.146142051842 eV   |
           -------------------------------------------------

 * finished run on 2023/01/24 at 14:57:51.849
