   * xtb version 6.5.1 (fef0646) compiled by 'conda@b96dff2e9fd6' on 2023-01-04
          program call               : xtb init.xyz --opt -c 0 -u 0 -P 16 --alpb water

   ID    Z sym.   atoms
    1    7 N      1
    2    6 C      2-10
    3   17 Cl     11
    4    1 H      12-25

      * Solvation model:               ALPB
        Solvent                        water
        Solvent mass                       1.8000E+01 g/mol
          :  Hamiltonian                  GFN2-xTB          :
 * total energy  :   -33.9023656 Eh     change       -0.4826219E-09 Eh
 * total energy  :   -33.9070160 Eh     change       -0.4650370E-02 Eh
 * total energy  :   -33.9080256 Eh     change       -0.1009626E-02 Eh
 * total energy  :   -33.9083583 Eh     change       -0.3327228E-03 Eh
 * total energy  :   -33.9085072 Eh     change       -0.1488761E-03 Eh
 * total energy  :   -33.9086591 Eh     change       -0.1518857E-03 Eh
 * total energy  :   -33.9088559 Eh     change       -0.1967578E-03 Eh
 * total energy  :   -33.9089823 Eh     change       -0.1264829E-03 Eh
 * total energy  :   -33.9090779 Eh     change       -0.9555409E-04 Eh
 * total energy  :   -33.9091371 Eh     change       -0.5921756E-04 Eh
 * total energy  :   -33.9094675 Eh     change       -0.8647462E-04 Eh
 * total energy  :   -33.9095402 Eh     change       -0.7272589E-04 Eh
 * total energy  :   -33.9095865 Eh     change       -0.4627872E-04 Eh
 * total energy  :   -33.9096152 Eh     change       -0.2863709E-04 Eh
 * total energy  :   -33.9096285 Eh     change       -0.1332932E-04 Eh
 * total energy  :   -33.9096375 Eh     change       -0.8995045E-05 Eh
 * total energy  :   -33.9096454 Eh     change       -0.7873773E-05 Eh
 * total energy  :   -33.9096507 Eh     change       -0.5365390E-05 Eh
 * total energy  :   -33.9096548 Eh     change       -0.4100303E-05 Eh
   *** GEOMETRY OPTIMIZATION CONVERGED AFTER 25 ITERATIONS ***

 final structure:
================
25
 xtb: 6.5.1 (fef0646)
N            1.10132730395536        0.38879643094178        0.25716477511539
C            2.57474716062529        0.30579700019029        0.18930325890287
C            3.05539728359956       -0.96986419576308        0.86898371344651
C            4.55597457557104       -1.18787568060035        0.64539622167739
C            5.01935690058986       -2.43798845839224        1.33790132858170
C            4.72637038910475       -3.68551370051484        0.79914509857277
C            5.12391278504282       -4.84353667965935        1.44221963821250
C            5.82288277079661       -4.77056126062840        2.63609287713146
C            6.11850720623577       -3.53355703973606        3.18195642146695
C            5.71648146047575       -2.37644859916305        2.53713854719325
Cl          -0.07029666811413       -2.07374616886282       -1.13330460983062
H            0.74742889511355        1.22077227273971       -0.22010128395709
H            0.78163267675513        0.38327501754194        1.22861663783633
H            0.68143867425248       -0.45200213489649       -0.21561635974682
H            3.01312607572928        1.18116213625323        0.67021420147034
H            2.87043406137500        0.28684002329115       -0.85948340479471
H            2.50056768166541       -1.81531385221612        0.45806007137236
H            2.86098752618835       -0.92774016187929        1.94154353175798
H            5.11067010016808       -0.33005161733525        1.02778516089430
H            4.74829621685505       -1.27501942693630       -0.42548970630761
H            4.18120416303362       -3.74953961179555       -0.13224711386685
H            4.88929197276366       -5.80636221319192        1.01116262638813
H            6.13520853840064       -5.67525098150496        3.13661350347789
H            6.66358003158681       -3.47121204840253        4.11234251630754
H            5.95205221822979       -1.41493904947933        2.96940234869875

          :  Hamiltonian                  GFN2-xTB          :
         :: total energy             -33.909654817226 Eh    ::
         :: gradient norm              0.000417487770 Eh/a0 ::
         :: HOMO-LUMO gap              4.725914764687 eV    ::
         :: SCC energy               -34.407573397738 Eh    ::
         :: -> dispersion             -0.018962148682 Eh    ::
         :: -> Gsolv                  -0.074721353207 Eh    ::
         :: repulsion energy           0.497871424316 Eh    ::

    * Orbital Energies and Occupations

         #    Occupation            Energy/Eh            Energy/eV
      -------------------------------------------------------------
         1        2.0000           -1.0061397             -27.3785
       ...           ...                  ...                  ...
        19        2.0000           -0.4716648             -12.8347
        20        2.0000           -0.4703077             -12.7977
        21        2.0000           -0.4579086             -12.4603
        22        2.0000           -0.4535127             -12.3407
        23        2.0000           -0.4475356             -12.1781
        24        2.0000           -0.4270328             -11.6202
        25        2.0000           -0.4161916             -11.3252
        26        2.0000           -0.4124793             -11.2241
        27        2.0000           -0.4026659             -10.9571
        28        2.0000           -0.4002179             -10.8905
        29        2.0000           -0.3998733             -10.8811
        30        2.0000           -0.3972027             -10.8084
        31        2.0000           -0.3897037             -10.6044 (HOMO)
        32                         -0.2160295              -5.8785 (LUMO)
        33                         -0.2154684              -5.8632
        34                         -0.0877840              -2.3887
        35                         -0.0258854              -0.7044
        36                          0.0717551               1.9526
        37                          0.0920660               2.5052
        38                          0.1003146               2.7297
        39                          0.1167740               3.1776
        40                          0.1175445               3.1985
        41                          0.1194883               3.2514
        42                          0.1198589               3.2615
       ...                                ...                  ...
        63                          0.6706907              18.2504
      -------------------------------------------------------------
                  HL-Gap            0.1736742 Eh            4.7259 eV

     #   Z          covCN         q      C6AA      α(0)
     1   7 N        3.484    -0.170    24.672     7.377
     2   6 C        3.733    -0.026    21.131     6.561
     3   6 C        3.805    -0.072    21.882     6.659
     4   6 C        3.809    -0.074    21.913     6.663
     5   6 C        2.971     0.014    27.705     8.634
     6   6 C        2.925    -0.040    29.006     8.832
     7   6 C        2.919    -0.036    28.892     8.814
     8   6 C        2.920    -0.039    28.981     8.828
     9   6 C        2.919    -0.037    28.926     8.820
    10   6 C        2.925    -0.045    29.119     8.849
    11  17 Cl       0.047    -0.948   124.906    17.009
    12   1 H        0.859     0.305     0.699     1.310
    13   1 H        0.859     0.297     0.722     1.331
    14   1 H        0.904     0.293     0.730     1.337
    15   1 H        0.924     0.106     1.729     2.056
    16   1 H        0.925     0.097     1.812     2.105
    17   1 H        0.924     0.057     2.235     2.338
    18   1 H        0.924     0.060     2.200     2.319
    19   1 H        0.924     0.057     2.233     2.337
    20   1 H        0.924     0.050     2.320     2.382
    21   1 H        0.926     0.028     2.621     2.532
    22   1 H        0.926     0.022     2.703     2.571
    23   1 H        0.926     0.026     2.639     2.540
    24   1 H        0.926     0.033     2.538     2.491
    25   1 H        0.926     0.044     2.401     2.423

Wiberg/Mayer (AO) data.
largest (>0.10) Wiberg bond orders for each atom

     #   Z sym  total        # sym  WBO       # sym  WBO       # sym  WBO
 ---------------------------------------------------------------------------
     1   7 N    3.644 --     2 C    0.968    13 H    0.897    12 H    0.893
                            14 H    0.833
     2   6 C    3.930 --     3 C    1.009    16 H    0.968     1 N    0.968
                            15 H    0.967
     3   6 C    3.992 --     2 C    1.009     4 C    0.989    18 H    0.975
                            17 H    0.972
     4   6 C    3.995 --     5 C    1.012     3 C    0.989    19 H    0.973
                            20 H    0.969
     5   6 C    3.988 --    10 C    1.416     6 C    1.408     4 C    1.012
                             8 C    0.110
     6   6 C    3.992 --     7 C    1.450     5 C    1.408    21 H    0.970
                             9 C    0.112
     7   6 C    3.993 --     6 C    1.450     8 C    1.435    22 H    0.972
                            10 C    0.110
     8   6 C    3.992 --     9 C    1.442     7 C    1.435    23 H    0.972
                             5 C    0.110
     9   6 C    3.992 --     8 C    1.442    10 C    1.442    24 H    0.971
                             6 C    0.112
    10   6 C    3.990 --     9 C    1.442     5 C    1.416    25 H    0.968
                             7 C    0.110
    11  17 Cl   0.101
    12   1 H    0.907 --     1 N    0.893
    13   1 H    0.912 --     1 N    0.897
    14   1 H    0.914 --     1 N    0.833
    15   1 H    0.989 --     2 C    0.967
    16   1 H    0.991 --     2 C    0.968
    17   1 H    0.997 --     3 C    0.972
    18   1 H    0.996 --     3 C    0.975
    19   1 H    0.996 --     4 C    0.973
    20   1 H    0.997 --     4 C    0.969
    21   1 H    0.999 --     6 C    0.970
    22   1 H    0.999 --     7 C    0.972
    23   1 H    0.999 --     8 C    0.972
    24   1 H    0.999 --     9 C    0.971
    25   1 H    0.998 --    10 C    0.968
 ---------------------------------------------------------------------------

molecular dipole:
                 x           y           z       tot (Debye)
 q only:        2.266       4.674       2.424
   full:        1.809       4.021       2.089      12.401

           -------------------------------------------------
          | TOTAL ENERGY              -33.909654817226 Eh   |
          | GRADIENT NORM               0.000417487770 Eh/α |
          | HOMO-LUMO GAP               4.725914764687 eV   |
           -------------------------------------------------

 * finished run on 2023/01/24 at 15:59:43.484
