   * xtb version 6.5.1 (fef0646) compiled by 'conda@b96dff2e9fd6' on 2023-01-04
          program call               : xtb init.xyz --opt -c 1 -u 0 -P 16

   ID    Z sym.   atoms
    1    7 N      1
    2    6 C      2-5
    3    1 H      6-15

          :  Hamiltonian                  GFN2-xTB          :
 * total energy  :   -16.1056831 Eh     change       -0.7707612E-10 Eh
 * total energy  :   -16.1073717 Eh     change       -0.1688669E-02 Eh
 * total energy  :   -16.1075863 Eh     change       -0.2145626E-03 Eh
 * total energy  :   -16.1076221 Eh     change       -0.3586257E-04 Eh
 * total energy  :   -16.1076407 Eh     change       -0.1855921E-04 Eh
 * total energy  :   -16.1076433 Eh     change       -0.2590980E-05 Eh
   *** GEOMETRY OPTIMIZATION CONVERGED AFTER 6 ITERATIONS ***

 final structure:
================
15
 xtb: 6.5.1 (fef0646)
N            0.92135382243528       -0.01551218085411        0.05652962863643
C            2.41977728884744       -0.05155460980354        0.07066125165917
C            2.91996439005810       -1.16851301829568        0.97930722736957
C            4.42605056482373       -1.19434989866735        0.98118955460642
C            5.14229217664375       -2.23485330701294        0.60503678043676
H            0.56766254971942        0.73308652338787       -0.55250801285560
H            0.56745808291602        0.13718986503439        1.01059135554426
H            0.55638259496194       -0.91686985208982       -0.27944004301173
H            2.78565954635674        0.91498109132812        0.42030683563553
H            2.77260086709029       -0.21066013453419       -0.94926902219525
H            2.54583460324381       -2.13433289436731        0.63540647397365
H            2.57007838157607       -0.99962600796838        2.00128070245121
H            4.90155377199645       -0.28970214499453        1.33091486593983
H            4.68927698875428       -3.15117704021339        0.26409850215151
H            6.21686437057668       -2.21867639094915        0.63504389965823

          :  Hamiltonian                  GFN2-xTB          :
         :: total energy             -16.107643299612 Eh    ::
         :: gradient norm              0.000262663523 Eh/a0 ::
         :: HOMO-LUMO gap              5.518657106625 eV    ::
         :: SCC energy               -16.369146985963 Eh    ::
         :: -> dispersion             -0.006357577247 Eh    ::
         :: repulsion energy           0.261502066519 Eh    ::

    * Orbital Energies and Occupations

         #    Occupation            Energy/Eh            Energy/eV
      -------------------------------------------------------------
         1        2.0000           -0.9002819             -24.4979
       ...           ...                  ...                  ...
         3        2.0000           -0.8104615             -22.0538
         4        2.0000           -0.8061465             -21.9364
         5        2.0000           -0.7805019             -21.2385
         6        2.0000           -0.7406478             -20.1541
         7        2.0000           -0.7302455             -19.8710
         8        2.0000           -0.6934939             -18.8709
         9        2.0000           -0.6753543             -18.3773
        10        2.0000           -0.6598310             -17.9549
        11        2.0000           -0.6377486             -17.3540
        12        2.0000           -0.6184081             -16.8277
        13        2.0000           -0.5900237             -16.0554
        14        2.0000           -0.5604329             -15.2502
        15        2.0000           -0.5384272             -14.6513 (HOMO)
        16                         -0.3356203              -9.1327 (LUMO)
        17                         -0.2682357              -7.2991
        18                         -0.1629113              -4.4330
        19                         -0.1056404              -2.8746
        20                         -0.1032968              -2.8108
        21                         -0.0557868              -1.5180
        22                         -0.0249261              -0.6783
        23                         -0.0150865              -0.4105
        24                          0.0117079               0.3186
        25                          0.0296994               0.8082
        26                          0.0509989               1.3878
       ...                                ...                  ...
        30                          0.4952595              13.4767
      -------------------------------------------------------------
                  HL-Gap            0.2028069 Eh            5.5187 eV

     #   Z          covCN         q      C6AA      α(0)
     1   7 N        3.482    -0.128    23.758     7.239
     2   6 C        3.733    -0.031    21.226     6.576
     3   6 C        3.806    -0.080    22.022     6.681
     4   6 C        2.888    -0.038    28.951     8.821
     5   6 C        2.837    -0.082    30.038     8.982
     6   1 H        0.859     0.270     0.809     1.409
     7   1 H        0.859     0.273     0.801     1.402
     8   1 H        0.859     0.273     0.800     1.401
     9   1 H        0.924     0.108     1.710     2.045
    10   1 H        0.924     0.108     1.715     2.048
    11   1 H        0.924     0.068     2.111     2.272
    12   1 H        0.924     0.068     2.112     2.273
    13   1 H        0.926     0.055     2.263     2.353
    14   1 H        0.926     0.062     2.177     2.307
    15   1 H        0.926     0.075     2.028     2.227

Wiberg/Mayer (AO) data.
largest (>0.10) Wiberg bond orders for each atom

     #   Z sym  total        # sym  WBO       # sym  WBO       # sym  WBO
 ---------------------------------------------------------------------------
     1   7 N    3.675 --     2 C    0.919     6 H    0.912     8 H    0.910
                             7 H    0.910
     2   6 C    3.885 --     3 C    1.000    10 H    0.967     9 H    0.967
                             1 N    0.919
     3   6 C    3.980 --     4 C    1.002     2 C    1.000    11 H    0.970
                            12 H    0.962
     4   6 C    3.983 --     5 C    1.992     3 C    1.002    13 H    0.965
     5   6 C    3.986 --     4 C    1.992    14 H    0.972    15 H    0.972
     6   1 H    0.926 --     1 N    0.912
     7   1 H    0.926 --     1 N    0.910
     8   1 H    0.926 --     1 N    0.910
     9   1 H    0.988 --     2 C    0.967
    10   1 H    0.988 --     2 C    0.967
    11   1 H    0.995 --     3 C    0.970
    12   1 H    0.995 --     3 C    0.962
    13   1 H    0.997 --     4 C    0.965
    14   1 H    0.996 --     5 C    0.972
    15   1 H    0.994 --     5 C    0.972
 ---------------------------------------------------------------------------

molecular dipole:
                 x           y           z       tot (Debye)
 q only:        2.675      -0.382       0.252
   full:        2.358      -0.305       0.223       6.069

           -------------------------------------------------
          | TOTAL ENERGY              -16.107643299612 Eh   |
          | GRADIENT NORM               0.000262663523 Eh/α |
          | HOMO-LUMO GAP               5.518657106625 eV   |
           -------------------------------------------------

 * finished run on 2023/01/23 at 14:11:48.465
