   * xtb version 6.5.1 (fef0646) compiled by 'conda@b96dff2e9fd6' on 2023-01-04
          program call               : xtb init.xyz --opt -c 1 -u 0 -P 16 --alpb water

   ID    Z sym.   atoms
    1    7 N      1
    2    6 C      2, 3, 5
    3   16 S      4
    4    1 H      6-15

      * Solvation model:               ALPB
        Solvent                        water
        Solvent mass                       1.8000E+01 g/mol
          :  Hamiltonian                  GFN2-xTB          :
 * total energy  :   -17.3502754 Eh     change       -0.2195222E-10 Eh
 * total energy  :   -17.3517750 Eh     change       -0.1499567E-02 Eh
 * total energy  :   -17.3520089 Eh     change       -0.2339727E-03 Eh
 * total energy  :   -17.3520478 Eh     change       -0.3887941E-04 Eh
 * total energy  :   -17.3520699 Eh     change       -0.2211068E-04 Eh
 * total energy  :   -17.3520802 Eh     change       -0.1027491E-04 Eh
 * total energy  :   -17.3520909 Eh     change       -0.1074738E-04 Eh
 * total energy  :   -17.3520960 Eh     change       -0.5052837E-05 Eh
 * total energy  :   -17.3520991 Eh     change       -0.3154552E-05 Eh
   *** GEOMETRY OPTIMIZATION CONVERGED AFTER 9 ITERATIONS ***

 final structure:
================
15
 xtb: 6.5.1 (fef0646)
N            2.99271131141282       -0.66231715323775        1.17619818307638
C            2.52261567785225        0.09896596101690       -0.00203353040531
C            3.08850586903937        1.50691714946765        0.03168002541037
S            4.93768847354675        1.41431663653174       -0.00084941313885
C            5.32903831046364        3.16835394892574        0.07088803795119
H            2.70356894113434       -1.64470528249226        1.12359817199102
H            2.63271007841755       -0.24970042199718        2.04404805256560
H            4.02081563111519       -0.61116283448610        1.20150411510490
H            1.43333030298162        0.14256116545081       -0.00758170235317
H            2.86553692812176       -0.40188675765763       -0.90720803721677
H            2.80281811522648        2.04155010269066        0.93633237130286
H            2.76736006787319        2.07237024438556       -0.84040517537700
H            6.41205527026919        3.24827023691399        0.09348431436757
H            4.90607289493267        3.59972654960819        0.97361055817805
H            4.94001212761315        3.66317045487967       -0.81558597145685

          :  Hamiltonian                  GFN2-xTB          :
         :: total energy             -17.352099143142 Eh    ::
         :: gradient norm              0.000432548940 Eh/a0 ::
         :: HOMO-LUMO gap              4.200873850856 eV    ::
         :: SCC energy               -17.559145017240 Eh    ::
         :: -> dispersion             -0.007397788424 Eh    ::
         :: -> Gsolv                  -0.117643913467 Eh    ::
         :: repulsion energy           0.207035616230 Eh    ::

    * Orbital Energies and Occupations

         #    Occupation            Energy/Eh            Energy/eV
      -------------------------------------------------------------
         1        2.0000           -0.7212061             -19.6250
       ...           ...                  ...                  ...
         4        2.0000           -0.6117972             -16.6478
         5        2.0000           -0.6055784             -16.4786
         6        2.0000           -0.5842945             -15.8995
         7        2.0000           -0.5793738             -15.7656
         8        2.0000           -0.5499548             -14.9650
         9        2.0000           -0.5148190             -14.0089
        10        2.0000           -0.5055520             -13.7568
        11        2.0000           -0.5024797             -13.6732
        12        2.0000           -0.4929190             -13.4130
        13        2.0000           -0.4731463             -12.8750
        14        2.0000           -0.4694583             -12.7746
        15        2.0000           -0.4439232             -12.0798
        16        2.0000           -0.3646108              -9.9216 (HOMO)
        17                         -0.2102315              -5.7207 (LUMO)
        18                         -0.1475955              -4.0163
        19                         -0.0454355              -1.2364
        20                         -0.0110771              -0.3014
        21                         -0.0041035              -0.1117
        22                          0.0144786               0.3940
        23                          0.0707588               1.9254
        24                          0.0922093               2.5091
        25                          0.1187725               3.2320
        26                          0.1376238               3.7449
        27                          0.1494192               4.0659
       ...                                ...                  ...
        35                          0.4186813              11.3929
      -------------------------------------------------------------
                  HL-Gap            0.1543793 Eh            4.2009 eV

     #   Z          covCN         q      C6AA      α(0)
     1   7 N        3.486    -0.164    24.535     7.357
     2   6 C        3.769    -0.041    21.341     6.584
     3   6 C        3.793    -0.033    21.172     6.552
     4  16 S        1.976    -0.239   151.306    20.703
     5   6 C        3.746    -0.052    21.583     6.627
     6   1 H        0.859     0.324     0.646     1.259
     7   1 H        0.859     0.316     0.667     1.280
     8   1 H        0.859     0.312     0.679     1.291
     9   1 H        0.925     0.130     1.538     1.939
    10   1 H        0.925     0.127     1.561     1.954
    11   1 H        0.925     0.089     1.885     2.147
    12   1 H        0.925     0.079     1.992     2.207
    13   1 H        0.925     0.047     2.354     2.400
    14   1 H        0.925     0.060     2.202     2.321
    15   1 H        0.925     0.046     2.366     2.405

Wiberg/Mayer (AO) data.
largest (>0.10) Wiberg bond orders for each atom

     #   Z sym  total        # sym  WBO       # sym  WBO       # sym  WBO
 ---------------------------------------------------------------------------
     1   7 N    3.649 --     2 C    0.975     7 H    0.886     6 H    0.882
                             8 H    0.881
     2   6 C    3.930 --     3 C    1.021     1 N    0.975    10 H    0.961
                             9 H    0.956
     3   6 C    3.970 --     2 C    1.021     4 S    0.982    12 H    0.969
                            11 H    0.967
     4  16 S    2.079 --     5 C    1.011     3 C    0.982
     5   6 C    3.978 --     4 S    1.011    15 H    0.985    14 H    0.983
                            13 H    0.982
     6   1 H    0.895 --     1 N    0.882
     7   1 H    0.900 --     1 N    0.886
     8   1 H    0.903 --     1 N    0.881
     9   1 H    0.983 --     2 C    0.956
    10   1 H    0.984 --     2 C    0.961
    11   1 H    0.992 --     3 C    0.967
    12   1 H    0.994 --     3 C    0.969
    13   1 H    0.997 --     5 C    0.982
    14   1 H    0.996 --     5 C    0.983
    15   1 H    0.998 --     5 C    0.985
 ---------------------------------------------------------------------------

molecular dipole:
                 x           y           z       tot (Debye)
 q only:        5.003      -0.757       2.105
   full:        5.225      -0.090       2.050      14.269

           -------------------------------------------------
          | TOTAL ENERGY              -17.352099143142 Eh   |
          | GRADIENT NORM               0.000432548940 Eh/α |
          | HOMO-LUMO GAP               4.200873850856 eV   |
           -------------------------------------------------

 * finished run on 2023/01/24 at 16:52:35.911
