   * xtb version 6.5.1 (fef0646) compiled by 'conda@b96dff2e9fd6' on 2023-01-04
          program call               : xtb init.xyz --opt -c 1 -u 0 -P 16 --alpb water

   ID    Z sym.   atoms
    1    7 N      1
    2    6 C      2-6
    3    8 O      7, 8
    4    1 H      9-20

      * Solvation model:               ALPB
        Solvent                        water
        Solvent mass                       1.8000E+01 g/mol
          :  Hamiltonian                  GFN2-xTB          :
 * total energy  :   -27.5661796 Eh     change       -0.5758949E-10 Eh
 * total energy  :   -27.5684278 Eh     change       -0.2248210E-02 Eh
 * total energy  :   -27.5687946 Eh     change       -0.3667472E-03 Eh
 * total energy  :   -27.5689358 Eh     change       -0.1411961E-03 Eh
 * total energy  :   -27.5690190 Eh     change       -0.8323662E-04 Eh
 * total energy  :   -27.5691331 Eh     change       -0.1140743E-03 Eh
 * total energy  :   -27.5692145 Eh     change       -0.8145101E-04 Eh
 * total energy  :   -27.5693114 Eh     change       -0.9683897E-04 Eh
 * total energy  :   -27.5693530 Eh     change       -0.4167877E-04 Eh
 * total energy  :   -27.5693882 Eh     change       -0.3520900E-04 Eh
 * total energy  :   -27.5695701 Eh     change       -0.1224878E-04 Eh
 * total energy  :   -27.5695806 Eh     change       -0.1055582E-04 Eh
 * total energy  :   -27.5695868 Eh     change       -0.6137160E-05 Eh
 * total energy  :   -27.5695952 Eh     change       -0.8462051E-05 Eh
 * total energy  :   -27.5696007 Eh     change       -0.5438448E-05 Eh
 * total energy  :   -27.5696187 Eh     change       -0.1798049E-04 Eh
 * total energy  :   -27.5696272 Eh     change       -0.8544518E-05 Eh
 * total energy  :   -27.5696346 Eh     change       -0.7375293E-05 Eh
 * total energy  :   -27.5696371 Eh     change       -0.2497592E-05 Eh
   *** GEOMETRY OPTIMIZATION CONVERGED AFTER 23 ITERATIONS ***

 final structure:
================
20
 xtb: 6.5.1 (fef0646)
N            0.89787594641369        0.02589858522726       -0.11021762268712
C            2.36737338329535       -0.15925778121887       -0.02602867494259
C            2.98665413883841       -0.11740089256029       -1.42060466865612
C            4.51405453669966       -0.09124758472131       -1.37442686946410
C            5.12177162131128       -1.38391355174007       -0.82816246153905
C            6.62144529767598       -1.40029134909625       -0.99774011037926
O            7.24749825713108       -2.49786320878922       -0.56628810681051
O            7.25846700124831       -0.49671229432011       -1.48853555032857
H            0.47205622565437       -0.00568091899952        0.82288438956668
H            0.47983151072755       -0.71207306896626       -0.68917114213840
H            0.67986651708538        0.93270339147015       -0.53980009416152
H            2.57153219341318       -1.11595945170086        0.45211442206668
H            2.79336667863662        0.63622548384571        0.58548148321872
H            2.66092173815211        0.78519362714312       -1.93809457973665
H            2.66678309161536       -0.98004597953627       -2.00569977210849
H            4.86358612028928        0.74815121400411       -0.77149310040042
H            4.90370127049087        0.06625758692482       -2.38170284579581
H            4.71502558325741       -2.24602014011257       -1.36215538020493
H            4.91053238976768       -1.49720617771148        0.23643408554383
H            6.65386649829636       -3.17478748914216       -0.19213340104245

          :  Hamiltonian                  GFN2-xTB          :
         :: total energy             -27.569637085275 Eh    ::
         :: gradient norm              0.000408459590 Eh/a0 ::
         :: HOMO-LUMO gap              5.029388886960 eV    ::
         :: SCC energy               -27.882763233326 Eh    ::
         :: -> dispersion             -0.010547819687 Eh    ::
         :: -> Gsolv                  -0.147775725639 Eh    ::
         :: repulsion energy           0.313131519190 Eh    ::

    * Orbital Energies and Occupations

         #    Occupation            Energy/Eh            Energy/eV
      -------------------------------------------------------------
         1        2.0000           -0.7443534             -20.2549
       ...           ...                  ...                  ...
        12        2.0000           -0.5683583             -15.4658
        13        2.0000           -0.5540209             -15.0757
        14        2.0000           -0.5484397             -14.9238
        15        2.0000           -0.5171694             -14.0729
        16        2.0000           -0.5092480             -13.8573
        17        2.0000           -0.5028157             -13.6823
        18        2.0000           -0.4871614             -13.2563
        19        2.0000           -0.4761779             -12.9575
        20        2.0000           -0.4684817             -12.7480
        21        2.0000           -0.4653796             -12.6636
        22        2.0000           -0.4407397             -11.9931
        23        2.0000           -0.4380686             -11.9205
        24        2.0000           -0.4219941             -11.4830 (HOMO)
        25                         -0.2371674              -6.4537 (LUMO)
        26                         -0.0529585              -1.4411
        27                          0.0498587               1.3567
        28                          0.0504673               1.3733
        29                          0.0779739               2.1218
        30                          0.0826363               2.2486
        31                          0.1006415               2.7386
        32                          0.1266276               3.4457
        33                          0.1329235               3.6170
        34                          0.1501368               4.0854
        35                          0.1536090               4.1799
       ...                                ...                  ...
        44                          0.6041140              16.4388
      -------------------------------------------------------------
                  HL-Gap            0.1848266 Eh            5.0294 eV

     #   Z          covCN         q      C6AA      α(0)
     1   7 N        3.485    -0.163    24.506     7.352
     2   6 C        3.732    -0.040    21.381     6.600
     3   6 C        3.802    -0.089    22.200     6.708
     4   6 C        3.804    -0.067    21.775     6.643
     5   6 C        3.802    -0.120    22.793     6.797
     6   6 C        2.689     0.369    20.743     7.454
     7   8 O        1.659    -0.440    21.635     6.279
     8   8 O        0.856    -0.475    23.239     6.463
     9   1 H        0.859     0.317     0.665     1.278
    10   1 H        0.859     0.311     0.683     1.294
    11   1 H        0.859     0.307     0.692     1.303
    12   1 H        0.925     0.111     1.685     2.030
    13   1 H        0.925     0.109     1.704     2.041
    14   1 H        0.924     0.076     2.024     2.225
    15   1 H        0.924     0.074     2.038     2.233
    16   1 H        0.924     0.055     2.263     2.353
    17   1 H        0.924     0.051     2.313     2.378
    18   1 H        0.924     0.098     1.803     2.100
    19   1 H        0.924     0.099     1.796     2.096
    20   1 H        0.804     0.416     0.455     1.060

Wiberg/Mayer (AO) data.
largest (>0.10) Wiberg bond orders for each atom

     #   Z sym  total        # sym  WBO       # sym  WBO       # sym  WBO
 ---------------------------------------------------------------------------
     1   7 N    3.652 --     2 C    0.967    11 H    0.890    10 H    0.889
                             9 H    0.886
     2   6 C    3.926 --     3 C    1.010     1 N    0.967    13 H    0.966
                            12 H    0.965
     3   6 C    3.989 --     2 C    1.010     4 C    1.006    15 H    0.972
                            14 H    0.970
     4   6 C    3.990 --     5 C    1.006     3 C    1.006    16 H    0.975
                            17 H    0.974
     5   6 C    3.989 --     4 C    1.006     6 C    0.983    18 H    0.945
                            19 H    0.945
     6   6 C    3.892 --     8 O    1.722     7 O    1.148     5 C    0.983
     7   8 O    2.160 --     6 C    1.148    20 H    0.805     8 O    0.156
     8   8 O    1.993 --     6 C    1.722     7 O    0.156
     9   1 H    0.899 --     1 N    0.886
    10   1 H    0.904 --     1 N    0.889
    11   1 H    0.906 --     1 N    0.890
    12   1 H    0.988 --     2 C    0.965
    13   1 H    0.988 --     2 C    0.966
    14   1 H    0.994 --     3 C    0.970
    15   1 H    0.994 --     3 C    0.972
    16   1 H    0.997 --     4 C    0.975
    17   1 H    0.997 --     4 C    0.974
    18   1 H    0.990 --     5 C    0.945
    19   1 H    0.990 --     5 C    0.945
    20   1 H    0.827 --     7 O    0.805
 ---------------------------------------------------------------------------

molecular dipole:
                 x           y           z       tot (Debye)
 q only:        0.222      -1.226       0.512
   full:        0.067      -1.355       0.567       3.737

           -------------------------------------------------
          | TOTAL ENERGY              -27.569637085275 Eh   |
          | GRADIENT NORM               0.000408459590 Eh/α |
          | HOMO-LUMO GAP               5.029388886960 eV   |
           -------------------------------------------------

 * finished run on 2023/01/24 at 16:04:49.477
