   * xtb version 6.5.1 (fef0646) compiled by 'conda@b96dff2e9fd6' on 2023-01-04
          program call               : xtb init.xyz --opt -c 1 -u 0 -P 16 --alpb water

   ID    Z sym.   atoms
    1    7 N      1
    2    6 C      2-17
    3    1 H      18-35

      * Solvation model:               ALPB
        Solvent                        water
        Solvent mass                       1.8000E+01 g/mol
          :  Hamiltonian                  GFN2-xTB          :
 * total energy  :   -45.9962855 Eh     change       -0.2849490E-09 Eh
 * total energy  :   -45.9993616 Eh     change       -0.3076076E-02 Eh
 * total energy  :   -45.9998488 Eh     change       -0.4872306E-03 Eh
 * total energy  :   -46.0000124 Eh     change       -0.1635837E-03 Eh
 * total energy  :   -46.0001753 Eh     change       -0.1628563E-03 Eh
 * total energy  :   -46.0002999 Eh     change       -0.1246428E-03 Eh
 * total energy  :   -46.0004520 Eh     change       -0.1520626E-03 Eh
 * total energy  :   -46.0006286 Eh     change       -0.1765760E-03 Eh
 * total energy  :   -46.0007975 Eh     change       -0.1689732E-03 Eh
 * total energy  :   -46.0009464 Eh     change       -0.1488571E-03 Eh
 * total energy  :   -46.0013955 Eh     change       -0.4692420E-04 Eh
 * total energy  :   -46.0014261 Eh     change       -0.3054822E-04 Eh
 * total energy  :   -46.0014507 Eh     change       -0.2461871E-04 Eh
 * total energy  :   -46.0014814 Eh     change       -0.3071475E-04 Eh
 * total energy  :   -46.0014961 Eh     change       -0.1471630E-04 Eh
 * total energy  :   -46.0015128 Eh     change       -0.1670595E-04 Eh
 * total energy  :   -46.0015241 Eh     change       -0.1125128E-04 Eh
 * total energy  :   -46.0015355 Eh     change       -0.1146213E-04 Eh
 * total energy  :   -46.0015404 Eh     change       -0.4864563E-05 Eh
   *** GEOMETRY OPTIMIZATION CONVERGED AFTER 23 ITERATIONS ***

 final structure:
================
35
 xtb: 6.5.1 (fef0646)
N            2.79485713090891       -1.58818867525106       -2.47119914056812
C            2.37467234092538       -0.16675140702128       -2.42563078955949
C            2.95949937320649        0.50962296985602       -1.18598667112133
C            4.46193442423292        0.57391255899681       -1.25898552911391
C            5.08878553027919        1.56587026045154       -2.00647803582532
C            6.46412457864368        1.62563874439572       -2.09620977651046
C            7.26709131196393        0.68682769668110       -1.44161455007795
C            8.71763617557238        0.71254718541766       -1.48244682385744
C            9.47679827082583        1.73853553626778       -1.89082022804595
C           10.92837101960829        1.77531614579179       -1.90026139531993
C           11.72288603360127        0.63733192157664       -1.74030638556777
C           13.10065012292687        0.73025153640479       -1.74517832864617
C           13.72025955336920        1.95893189990641       -1.90896840109681
C           12.94775939926746        3.09658339927440       -2.07780326583050
C           11.56975973215824        3.00453273332551       -2.07871407408734
C            6.63105308112899       -0.31760017508847       -0.70740627871142
C            5.25395233140143       -0.37130725311841       -0.61535353127545
H            2.47773851798457       -2.04071829356113       -3.33551834687681
H            2.40867821177129       -2.09882770949390       -1.66848733322404
H            3.82060863182579       -1.64054460554481       -2.42133515338596
H            1.28735242887239       -0.11306088282372       -2.40060277737854
H            2.73427668102817        0.33975200307470       -3.32070280385209
H            2.65509461464036       -0.02639516488472       -0.28710664719126
H            2.55939643521566        1.52090078681744       -1.12220002369270
H            4.49325486671957        2.31004021364517       -2.51518396333943
H            6.92269548870073        2.40478217900286       -2.68494254361041
H            9.19606777577508       -0.18063611662230       -1.10257194135189
H            9.00666060732908        2.65753642351913       -2.21589944399499
H           11.26286905030241       -0.33162965992123       -1.62388735505393
H           13.69930558655537       -0.16073313574691       -1.62163825901553
H           14.79779255339496        2.02837805282868       -1.90911943778307
H           13.42375184983150        4.05720427491876       -2.21017268250674
H           10.97597910617703        3.89793992714687       -2.20975247387943
H            7.23215742919738       -1.05228837116907       -0.19224369427479
H            4.79997975465678       -1.14107499905490       -0.00877191437725

          :  Hamiltonian                  GFN2-xTB          :
         :: total energy             -46.001540388641 Eh    ::
         :: gradient norm              0.000932213591 Eh/a0 ::
         :: HOMO-LUMO gap              2.809834298046 eV    ::
         :: SCC energy               -46.853205561731 Eh    ::
         :: -> dispersion             -0.031412531206 Eh    ::
         :: -> Gsolv                  -0.118808293183 Eh    ::
         :: repulsion energy           0.851948364426 Eh    ::

    * Orbital Energies and Occupations

         #    Occupation            Energy/Eh            Energy/eV
      -------------------------------------------------------------
         1        2.0000           -0.6934084             -18.8686
       ...           ...                  ...                  ...
        31        2.0000           -0.4708936             -12.8137
        32        2.0000           -0.4657409             -12.6735
        33        2.0000           -0.4541492             -12.3580
        34        2.0000           -0.4429370             -12.0529
        35        2.0000           -0.4381188             -11.9218
        36        2.0000           -0.4309880             -11.7278
        37        2.0000           -0.4214703             -11.4688
        38        2.0000           -0.4195498             -11.4165
        39        2.0000           -0.4139579             -11.2644
        40        2.0000           -0.4093480             -11.1389
        41        2.0000           -0.4063200             -11.0565
        42        2.0000           -0.4036788             -10.9847
        43        2.0000           -0.3704095             -10.0794 (HOMO)
        44                         -0.2671499              -7.2695 (LUMO)
        45                         -0.2241019              -6.0981
        46                         -0.2212089              -6.0194
        47                         -0.2118669              -5.7652
        48                         -0.1633080              -4.4438
        49                         -0.0891199              -2.4251
        50                         -0.0711290              -1.9355
        51                         -0.0460037              -1.2518
        52                          0.0585830               1.5941
        53                          0.0826998               2.2504
        54                          0.0948179               2.5801
       ...                                ...                  ...
        86                          0.7005369              19.0626
      -------------------------------------------------------------
                  HL-Gap            0.1032595 Eh            2.8098 eV

     #   Z          covCN         q      C6AA      α(0)
     1   7 N        3.485    -0.154    24.328     7.326
     2   6 C        3.733    -0.036    21.316     6.590
     3   6 C        3.808    -0.094    22.295     6.721
     4   6 C        2.970     0.008    27.841     8.655
     5   6 C        2.922    -0.045    29.119     8.849
     6   6 C        2.922    -0.038    28.933     8.821
     7   6 C        2.970     0.009    27.806     8.650
     8   6 C        2.901    -0.044    29.102     8.845
     9   6 C        2.901    -0.043    29.074     8.841
    10   6 C        2.970     0.011    27.769     8.644
    11   6 C        2.924    -0.039    28.971     8.827
    12   6 C        2.918    -0.035    28.883     8.813
    13   6 C        2.920    -0.036    28.897     8.815
    14   6 C        2.917    -0.035    28.878     8.812
    15   6 C        2.929    -0.040    28.989     8.830
    16   6 C        2.927    -0.041    29.022     8.835
    17   6 C        2.920    -0.055    29.363     8.886
    18   1 H        0.859     0.317     0.665     1.278
    19   1 H        0.859     0.309     0.686     1.298
    20   1 H        0.859     0.293     0.733     1.341
    21   1 H        0.925     0.117     1.641     2.003
    22   1 H        0.925     0.109     1.705     2.042
    23   1 H        0.925     0.081     1.970     2.195
    24   1 H        0.925     0.080     1.979     2.200
    25   1 H        0.926     0.045     2.377     2.411
    26   1 H        0.926     0.028     2.619     2.531
    27   1 H        0.925     0.037     2.494     2.470
    28   1 H        0.925     0.038     2.475     2.460
    29   1 H        0.926     0.040     2.444     2.445
    30   1 H        0.926     0.032     2.552     2.498
    31   1 H        0.926     0.029     2.605     2.524
    32   1 H        0.926     0.030     2.593     2.518
    33   1 H        0.926     0.034     2.528     2.487
    34   1 H        0.926     0.032     2.557     2.501
    35   1 H        0.926     0.058     2.221     2.330

Wiberg/Mayer (AO) data.
largest (>0.10) Wiberg bond orders for each atom

     #   Z sym  total        # sym  WBO       # sym  WBO       # sym  WBO
 ---------------------------------------------------------------------------
     1   7 N    3.657 --     2 C    0.966    20 H    0.892    19 H    0.889
                            18 H    0.886
     2   6 C    3.925 --     3 C    0.997    22 H    0.966     1 N    0.966
                            21 H    0.964
     3   6 C    3.988 --     4 C    1.011     2 C    0.997    23 H    0.967
                            24 H    0.961
     4   6 C    3.977 --    17 C    1.403     5 C    1.394     3 C    1.011
     5   6 C    3.990 --     6 C    1.472     4 C    1.394    25 H    0.968
                            16 C    0.102
     6   6 C    3.983 --     5 C    1.472     7 C    1.360    26 H    0.966
                            17 C    0.101
     7   6 C    3.989 --    16 C    1.368     6 C    1.360     8 C    1.110
     8   6 C    3.989 --     9 C    1.763     7 C    1.110    27 H    0.959
     9   6 C    3.988 --     8 C    1.763    10 C    1.110    28 H    0.959
    10   6 C    3.989 --    15 C    1.366    11 C    1.365     9 C    1.110
    11   6 C    3.983 --    12 C    1.463    10 C    1.365    29 H    0.965
                            14 C    0.105
    12   6 C    3.992 --    11 C    1.463    13 C    1.427    30 H    0.971
                            15 C    0.104
    13   6 C    3.981 --    14 C    1.430    12 C    1.427    31 H    0.972
    14   6 C    3.992 --    15 C    1.460    13 C    1.430    32 H    0.971
                            11 C    0.105
    15   6 C    3.982 --    14 C    1.460    10 C    1.366    33 H    0.969
                            12 C    0.104
    16   6 C    3.981 --    17 C    1.457     7 C    1.368    34 H    0.969
                             5 C    0.102
    17   6 C    3.988 --    16 C    1.457     4 C    1.403    35 H    0.965
                             6 C    0.101
    18   1 H    0.900 --     1 N    0.886
    19   1 H    0.904 --     1 N    0.889
    20   1 H    0.914 --     1 N    0.892
    21   1 H    0.986 --     2 C    0.964
    22   1 H    0.988 --     2 C    0.966
    23   1 H    0.993 --     3 C    0.967
    24   1 H    0.993 --     3 C    0.961
    25   1 H    0.998 --     5 C    0.968
    26   1 H    0.999 --     6 C    0.966
    27   1 H    0.998 --     8 C    0.959
    28   1 H    0.998 --     9 C    0.959
    29   1 H    0.998 --    11 C    0.965
    30   1 H    0.999 --    12 C    0.971
    31   1 H    0.999 --    13 C    0.972
    32   1 H    0.999 --    14 C    0.971
    33   1 H    0.999 --    15 C    0.969
    34   1 H    0.999 --    16 C    0.969
    35   1 H    0.996 --    17 C    0.965
 ---------------------------------------------------------------------------

molecular dipole:
                 x           y           z       tot (Debye)
 q only:        4.647      -2.829      -4.535
   full:        5.057      -2.784      -4.517      18.630

           -------------------------------------------------
          | TOTAL ENERGY              -46.001540388641 Eh   |
          | GRADIENT NORM               0.000932213591 Eh/α |
          | HOMO-LUMO GAP               2.809834298046 eV   |
           -------------------------------------------------

 * finished run on 2023/01/24 at 14:56:17.347
