   * xtb version 6.5.1 (fef0646) compiled by 'conda@b96dff2e9fd6' on 2023-01-04
          program call               : xtb init.xyz --opt -c 0 -u 0 -P 16 --alpb water

   ID    Z sym.   atoms
    1    7 N      1
    2    6 C      2-9
    3   17 Cl     10
    4    1 H      11-28

      * Solvation model:               ALPB
        Solvent                        water
        Solvent mass                       1.8000E+01 g/mol
          :  Hamiltonian                  GFN2-xTB          :
 * total energy  :   -33.8362088 Eh     change       -0.5441834E-09 Eh
 * total energy  :   -33.8398025 Eh     change       -0.3593658E-02 Eh
 * total energy  :   -33.8413135 Eh     change       -0.1510996E-02 Eh
 * total energy  :   -33.8420085 Eh     change       -0.6950419E-03 Eh
 * total energy  :   -33.8428077 Eh     change       -0.7991782E-03 Eh
 * total energy  :   -33.8436035 Eh     change       -0.7958245E-03 Eh
 * total energy  :   -33.8441438 Eh     change       -0.5402169E-03 Eh
 * total energy  :   -33.8444782 Eh     change       -0.3344054E-03 Eh
 * total energy  :   -33.8446900 Eh     change       -0.2117907E-03 Eh
 * total energy  :   -33.8447651 Eh     change       -0.7519549E-04 Eh
 * total energy  :   -33.8461068 Eh     change       -0.9025002E-04 Eh
 * total energy  :   -33.8461711 Eh     change       -0.6434723E-04 Eh
 * total energy  :   -33.8462374 Eh     change       -0.6629104E-04 Eh
 * total energy  :   -33.8462702 Eh     change       -0.3278581E-04 Eh
 * total energy  :   -33.8463020 Eh     change       -0.3176864E-04 Eh
 * total energy  :   -33.8463094 Eh     change       -0.7420604E-05 Eh
 * total energy  :   -33.8463078 Eh     change        0.1602514E-05 Eh
 * total energy  :   -33.8463130 Eh     change       -0.5229687E-05 Eh
 * total energy  :   -33.8463146 Eh     change       -0.1531085E-05 Eh
   *** GEOMETRY OPTIMIZATION CONVERGED AFTER 26 ITERATIONS ***

 final structure:
================
28
 xtb: 6.5.1 (fef0646)
N            2.57110424304003        2.30728743987767       -0.94773663332496
C            2.34581475718764        2.42054580939205        0.50852938422364
C            2.95002022282166        1.22397549644760        1.23230103523268
C            4.48322274916591        1.19622563137904        1.25987884208051
C            4.96033571099374       -0.16348523268760        1.77724119797389
C            6.48443199000199       -0.24124359360483        1.80463522317195
C            7.06156371031392        0.87419502107777        2.67111184301891
C            6.59348770151179        2.23306495024316        2.16065700388521
C            5.06837788699337        2.30384645087395        2.13919194540356
Cl           1.48293467980966       -0.36101423376703       -1.98977798257454
H            2.11625912906931        3.06572251848313       -1.45925816364035
H            2.17849827226044        1.39769126217865       -1.30083821180188
H            3.57158049727494        2.29957360890557       -1.15837989133466
H            1.27123858709731        2.43127530163354        0.68603383344881
H            2.77710491653545        3.35393880050332        0.86946461695942
H            2.58713319136321        0.31990120336047        0.73836761059583
H            2.58182757657312        1.20781683821648        2.25833251192774
H            4.87490432538788        1.30778278772821        0.24386033340107
H            4.56247062922486       -0.95638573200925        1.13905747494373
H            4.57244612994101       -0.32472834135235        2.78587463489810
H            6.87128026791417       -0.14828076455755        0.78687270408929
H            6.79805001630390       -1.21412327910436        2.18945055671883
H            8.15251631045122        0.82539697516799        2.66308967482750
H            6.72876930106270        0.73839047479411        3.70277167606911
H            6.98163325403659        2.38849309384207        1.15135732707836
H            6.99241401648095        3.02482224425764        2.79786792427134
H            4.76589441491604        3.28650459815626        1.77708894930605
H            4.68958551227160        2.18951067056041        3.15697457914839

          :  Hamiltonian                  GFN2-xTB          :
         :: total energy             -33.846314557097 Eh    ::
         :: gradient norm              0.000173002346 Eh/a0 ::
         :: HOMO-LUMO gap             10.214998133686 eV    ::
         :: SCC energy               -34.261505394845 Eh    ::
         :: -> dispersion             -0.020519140755 Eh    ::
         :: -> Gsolv                  -0.071332573810 Eh    ::
         :: repulsion energy           0.415013247399 Eh    ::

    * Orbital Energies and Occupations

         #    Occupation            Energy/Eh            Energy/eV
      -------------------------------------------------------------
         1        2.0000           -1.0056191             -27.3643
       ...           ...                  ...                  ...
        19        2.0000           -0.4709728             -12.8158
        20        2.0000           -0.4585479             -12.4777
        21        2.0000           -0.4566812             -12.4269
        22        2.0000           -0.4485858             -12.2066
        23        2.0000           -0.4367206             -11.8838
        24        2.0000           -0.4302186             -11.7068
        25        2.0000           -0.4257212             -11.5845
        26        2.0000           -0.4135286             -11.2527
        27        2.0000           -0.4071524             -11.0792
        28        2.0000           -0.4048302             -11.0160
        29        2.0000           -0.4011483             -10.9158
        30        2.0000           -0.3998451             -10.8803
        31        2.0000           -0.3987615             -10.8509 (HOMO)
        32                         -0.0233672              -0.6359 (LUMO)
        33                          0.0575449               1.5659
        34                          0.0693778               1.8879
        35                          0.0869715               2.3666
        36                          0.0933521               2.5402
        37                          0.0995936               2.7101
        38                          0.1102648               3.0005
        39                          0.1158304               3.1519
        40                          0.1180594               3.2126
        41                          0.1182226               3.2170
        42                          0.1198856               3.2623
       ...                                ...                  ...
        63                          0.3234681               8.8020
      -------------------------------------------------------------
                  HL-Gap            0.3753943 Eh           10.2150 eV

     #   Z          covCN         q      C6AA      α(0)
     1   7 N        3.484    -0.165    24.558     7.360
     2   6 C        3.731    -0.026    21.137     6.562
     3   6 C        3.806    -0.083    22.079     6.689
     4   6 C        3.854    -0.023    20.956     6.511
     5   6 C        3.809    -0.062    21.675     6.627
     6   6 C        3.805    -0.058    21.608     6.618
     7   6 C        3.805    -0.060    21.651     6.624
     8   6 C        3.805    -0.062    21.681     6.629
     9   6 C        3.808    -0.071    21.845     6.653
    10  17 Cl       0.045    -0.949   124.933    17.011
    11   1 H        0.860     0.303     0.704     1.315
    12   1 H        0.902     0.293     0.731     1.337
    13   1 H        0.859     0.288     0.751     1.357
    14   1 H        0.925     0.099     1.796     2.096
    15   1 H        0.925     0.104     1.750     2.069
    16   1 H        0.924     0.058     2.219     2.330
    17   1 H        0.924     0.061     2.188     2.313
    18   1 H        0.924     0.041     2.432     2.439
    19   1 H        0.924     0.022     2.698     2.569
    20   1 H        0.924     0.032     2.561     2.503
    21   1 H        0.924     0.030     2.580     2.512
    22   1 H        0.924     0.021     2.721     2.580
    23   1 H        0.924     0.024     2.677     2.559
    24   1 H        0.924     0.031     2.572     2.508
    25   1 H        0.924     0.035     2.511     2.478
    26   1 H        0.924     0.031     2.577     2.510
    27   1 H        0.925     0.046     2.371     2.408
    28   1 H        0.924     0.038     2.470     2.458

Wiberg/Mayer (AO) data.
largest (>0.10) Wiberg bond orders for each atom

     #   Z sym  total        # sym  WBO       # sym  WBO       # sym  WBO
 ---------------------------------------------------------------------------
     1   7 N    3.648 --     2 C    0.966    13 H    0.897    11 H    0.895
                            12 H    0.834
     2   6 C    3.930 --     3 C    1.011    14 H    0.969     1 N    0.966
                            15 H    0.963
     3   6 C    3.991 --     2 C    1.011     4 C    0.995    17 H    0.970
                            16 H    0.969
     4   6 C    3.995 --     9 C    0.998     5 C    0.996     3 C    0.995
                            18 H    0.962
     5   6 C    3.997 --     6 C    1.008     4 C    0.996    19 H    0.977
                            20 H    0.976
     6   6 C    3.998 --     7 C    1.009     5 C    1.008    22 H    0.978
                            21 H    0.978
     7   6 C    3.998 --     8 C    1.009     6 C    1.009    23 H    0.978
                            24 H    0.978
     8   6 C    3.998 --     7 C    1.009     9 C    1.008    26 H    0.977
                            25 H    0.977
     9   6 C    3.997 --     8 C    1.008     4 C    0.998    28 H    0.976
                            27 H    0.972
    10  17 Cl   0.100
    11   1 H    0.908 --     1 N    0.895
    12   1 H    0.914 --     1 N    0.834
    13   1 H    0.917 --     1 N    0.897
    14   1 H    0.990 --     2 C    0.969
    15   1 H    0.989 --     2 C    0.963
    16   1 H    0.996 --     3 C    0.969
    17   1 H    0.996 --     3 C    0.970
    18   1 H    0.998 --     4 C    0.962
    19   1 H    0.999 --     5 C    0.977
    20   1 H    0.999 --     5 C    0.976
    21   1 H    0.999 --     6 C    0.978
    22   1 H    0.999 --     6 C    0.978
    23   1 H    0.999 --     7 C    0.978
    24   1 H    0.999 --     7 C    0.978
    25   1 H    0.999 --     8 C    0.977
    26   1 H    0.999 --     8 C    0.977
    27   1 H    0.998 --     9 C    0.972
    28   1 H    0.999 --     9 C    0.976
 ---------------------------------------------------------------------------

molecular dipole:
                 x           y           z       tot (Debye)
 q only:        1.857       4.854       2.124
   full:        1.667       4.160       1.737      12.216

           -------------------------------------------------
          | TOTAL ENERGY              -33.846314557097 Eh   |
          | GRADIENT NORM               0.000173002346 Eh/α |
          | HOMO-LUMO GAP              10.214998133686 eV   |
           -------------------------------------------------

 * finished run on 2023/01/24 at 15:53:19.011
