   * xtb version 6.5.1 (fef0646) compiled by 'conda@b96dff2e9fd6' on 2023-01-04
          program call               : xtb init.xyz --opt -c 0 -u 0 -P 16 --input xtb.inp

   ID    Z sym.   atoms
    1    7 N      1
    2    6 C      2-9
    3   17 Cl     10
    4    1 H      11-28

          :  Hamiltonian                  GFN2-xTB          :
 * total energy  :   -33.7620262 Eh     change       -0.3941878E-09 Eh
 * total energy  :   -33.7768487 Eh     change       -0.1482248E-01 Eh
 * total energy  :   -33.7808503 Eh     change       -0.4001555E-02 Eh
 * total energy  :   -33.7895151 Eh     change       -0.8664851E-02 Eh
 * total energy  :   -33.7895975 Eh     change       -0.8239613E-04 Eh
 * total energy  :   -33.7954108 Eh     change       -0.5813329E-02 Eh
 * total energy  :   -33.7976335 Eh     change       -0.2222714E-02 Eh
 * total energy  :   -33.7991916 Eh     change       -0.1558051E-02 Eh
 * total energy  :   -33.7996365 Eh     change       -0.4449030E-03 Eh
 * total energy  :   -33.7999934 Eh     change       -0.3568873E-03 Eh
 * total energy  :   -33.8045406 Eh     change       -0.5097434E-04 Eh
 * total energy  :   -33.8046060 Eh     change       -0.6541206E-04 Eh
 * total energy  :   -33.8046427 Eh     change       -0.3664525E-04 Eh
 * total energy  :   -33.8046776 Eh     change       -0.3489119E-04 Eh
 * total energy  :   -33.8046963 Eh     change       -0.1870453E-04 Eh
 * total energy  :   -33.8047296 Eh     change       -0.3328613E-04 Eh
 * total energy  :   -33.8047380 Eh     change       -0.8488189E-05 Eh
 * total energy  :   -33.8047434 Eh     change       -0.5380513E-05 Eh
 * total energy  :   -33.8047451 Eh     change       -0.1656924E-05 Eh
   *** GEOMETRY OPTIMIZATION CONVERGED AFTER 42 ITERATIONS ***

 final structure:
================
28
 xtb: 6.5.1 (fef0646)
N            0.88067072225992        0.04510352149181       -0.39591280107451
C            2.33550364635009       -0.05000225161916       -0.48689058403575
C            2.95677924157782        0.98713421172542       -1.42616636400624
C            4.48847928968851        0.94370387876884       -1.45380709875046
C            5.04236152381575        2.18850562306864       -2.15263835261887
C            6.56790155516515        2.17570525165110       -2.16855228810273
C            7.08381535943611        0.92232052414622       -2.86711251879683
C            6.53945997578652       -0.32393261772405       -2.17735405851841
C            5.01324015064526       -0.30729609851592       -2.16090539131675
Cl          -0.19511000403477       -2.01198388566727        1.40301604663993
H            0.31231037724620       -1.05395203868139        0.57275226465372
H            0.45598541166957       -0.09494035250866       -1.30712542117134
H            0.60070866211724        0.95791333128143       -0.05112269344628
H            2.57102783506566       -1.06100802075046       -0.82288503256970
H            2.73675154335259        0.07569879900632        0.52132653105412
H            2.64096246852080        1.98271879747886       -1.09839795744174
H            2.57317739352123        0.83514203117168       -2.43935263874639
H            4.85190101172011        0.93819774948031       -0.41984046257837
H            4.68858146918589        3.08733071553580       -1.64201084515958
H            4.66961684461800        2.21941265890401       -3.17952067546527
H            6.94004065998009        2.19647285703461       -1.14132330984944
H            6.93979054355090        3.06790954599898       -2.67701567417981
H            8.17544302226184        0.91005422675944       -2.85431278513046
H            6.76102225056067        0.92965967828064       -3.91086776749609
H            6.91084795595322       -0.36059002673555       -1.15060308888776
H            6.89208410683989       -1.21987135964815       -2.69218371028339
H            4.64871707653980       -1.20471592093812       -1.65859787257350
H            4.64129990612689       -0.32101082907733       -3.18859545009412

          :  Hamiltonian                  GFN2-xTB          :
         :: total energy             -33.804745087035 Eh    ::
         :: gradient norm              0.000571496396 Eh/a0 ::
         :: HOMO-LUMO gap              9.154298817811 eV    ::
         :: SCC energy               -34.210609887145 Eh    ::
         :: -> dispersion             -0.020214256229 Eh    ::
         :: repulsion energy           0.405858236877 Eh    ::

    * Orbital Energies and Occupations

         #    Occupation            Energy/Eh            Energy/eV
      -------------------------------------------------------------
         1        2.0000           -1.0164462             -27.6589
       ...           ...                  ...                  ...
        19        2.0000           -0.4805335             -13.0760
        20        2.0000           -0.4704435             -12.8014
        21        2.0000           -0.4696482             -12.7798
        22        2.0000           -0.4653279             -12.6622
        23        2.0000           -0.4502811             -12.2528
        24        2.0000           -0.4435153             -12.0687
        25        2.0000           -0.4402063             -11.9786
        26        2.0000           -0.4274155             -11.6306
        27        2.0000           -0.4234774             -11.5234
        28        2.0000           -0.4170698             -11.3490
        29        2.0000           -0.3977251             -10.8227
        30        2.0000           -0.3935693             -10.7096
        31        2.0000           -0.3935567             -10.7092 (HOMO)
        32                         -0.0571424              -1.5549 (LUMO)
        33                          0.0153376               0.4174
        34                          0.0498721               1.3571
        35                          0.0640097               1.7418
        36                          0.0673817               1.8335
        37                          0.0674428               1.8352
        38                          0.0733206               1.9952
        39                          0.0733225               1.9952
        40                          0.0828246               2.2538
        41                          0.0911576               2.4805
        42                          0.1044084               2.8411
       ...                                ...                  ...
        63                          0.3081648               8.3856
      -------------------------------------------------------------
                  HL-Gap            0.3364143 Eh            9.1543 eV

     #   Z          covCN         q      C6AA      α(0)
     1   7 N        2.683    -0.309    27.943     7.851
     2   6 C        3.731     0.000    20.667     6.489
     3   6 C        3.803    -0.071    21.860     6.656
     4   6 C        3.855    -0.020    20.900     6.502
     5   6 C        3.809    -0.059    21.624     6.619
     6   6 C        3.805    -0.056    21.568     6.611
     7   6 C        3.806    -0.057    21.586     6.614
     8   6 C        3.806    -0.056    21.570     6.612
     9   6 C        3.808    -0.061    21.670     6.627
    10  17 Cl       0.838    -0.477   114.850    16.395
    11   1 H        0.892     0.330     0.628     1.240
    12   1 H        0.860     0.166     1.297     1.784
    13   1 H        0.860     0.165     1.301     1.787
    14   1 H        0.924     0.054     2.273     2.358
    15   1 H        0.924     0.052     2.291     2.367
    16   1 H        0.924     0.031     2.565     2.505
    17   1 H        0.924     0.032     2.558     2.501
    18   1 H        0.924     0.032     2.555     2.500
    19   1 H        0.924     0.026     2.645     2.543
    20   1 H        0.924     0.032     2.554     2.499
    21   1 H        0.924     0.032     2.563     2.504
    22   1 H        0.924     0.028     2.609     2.526
    23   1 H        0.924     0.028     2.615     2.529
    24   1 H        0.924     0.032     2.557     2.501
    25   1 H        0.924     0.032     2.561     2.503
    26   1 H        0.924     0.029     2.599     2.521
    27   1 H        0.924     0.029     2.601     2.522
    28   1 H        0.924     0.033     2.544     2.494

Wiberg/Mayer (AO) data.
largest (>0.10) Wiberg bond orders for each atom

     #   Z sym  total        # sym  WBO       # sym  WBO       # sym  WBO
 ---------------------------------------------------------------------------
     1   7 N    3.234 --     2 C    1.007    12 H    0.959    13 H    0.958
                            11 H    0.197
     2   6 C    3.972 --     1 N    1.007     3 C    1.000    15 H    0.974
                            14 H    0.972
     3   6 C    3.996 --     2 C    1.000     4 C    0.993    17 H    0.976
                            16 H    0.975
     4   6 C    3.995 --     9 C    0.998     5 C    0.996     3 C    0.993
                            18 H    0.967
     5   6 C    3.998 --     6 C    1.008     4 C    0.996    20 H    0.977
                            19 H    0.977
     6   6 C    3.998 --     7 C    1.009     5 C    1.008    21 H    0.977
                            22 H    0.977
     7   6 C    3.998 --     8 C    1.009     6 C    1.009    23 H    0.978
                            24 H    0.977
     8   6 C    3.998 --     7 C    1.009     9 C    1.008    25 H    0.978
                            26 H    0.977
     9   6 C    3.998 --     8 C    1.008     4 C    0.998    28 H    0.976
                            27 H    0.974
    10  17 Cl   0.774 --    11 H    0.691
    11   1 H    0.891 --    10 Cl   0.691     1 N    0.197
    12   1 H    0.972 --     1 N    0.959
    13   1 H    0.973 --     1 N    0.958
    14   1 H    0.997 --     2 C    0.972
    15   1 H    0.997 --     2 C    0.974
    16   1 H    0.999 --     3 C    0.975
    17   1 H    0.999 --     3 C    0.976
    18   1 H    0.999 --     4 C    0.967
    19   1 H    0.999 --     5 C    0.977
    20   1 H    0.999 --     5 C    0.977
    21   1 H    0.999 --     6 C    0.977
    22   1 H    0.999 --     6 C    0.977
    23   1 H    0.999 --     7 C    0.978
    24   1 H    0.999 --     7 C    0.977
    25   1 H    0.999 --     8 C    0.978
    26   1 H    0.999 --     8 C    0.977
    27   1 H    0.999 --     9 C    0.974
    28   1 H    0.999 --     9 C    0.976
 ---------------------------------------------------------------------------

molecular dipole:
                 x           y           z       tot (Debye)
 q only:        0.971       1.369      -1.256
   full:        0.812       1.350      -1.222       5.068

           -------------------------------------------------
          | TOTAL ENERGY              -33.804745087035 Eh   |
          | GRADIENT NORM               0.000571496396 Eh/α |
          | HOMO-LUMO GAP               9.154298817811 eV   |
           -------------------------------------------------

 * finished run on 2023/01/23 at 19:49:08.111
