   * xtb version 6.5.1 (fef0646) compiled by 'conda@b96dff2e9fd6' on 2023-01-04
          program call               : xtb init.xyz --opt -c 1 -u 0 -P 16

   ID    Z sym.   atoms
    1    7 N      1
    2    6 C      2-6
    3    1 H      7-20

          :  Hamiltonian                  GFN2-xTB          :
 * total energy  :   -20.3321450 Eh     change       -0.1202594E-10 Eh
 * total energy  :   -20.3331017 Eh     change       -0.9566823E-03 Eh
 * total energy  :   -20.3332025 Eh     change       -0.1008375E-03 Eh
 * total energy  :   -20.3332164 Eh     change       -0.1387065E-04 Eh
 * total energy  :   -20.3332183 Eh     change       -0.1932523E-05 Eh
   *** GEOMETRY OPTIMIZATION CONVERGED AFTER 5 ITERATIONS ***

 final structure:
================
20
 xtb: 6.5.1 (fef0646)
N            0.89660477971595        0.05494286627613        0.02426788699127
C            2.39581848766853        0.06838438600521        0.03431874638302
C            2.91379667226549        1.27522234332330        0.80158926256452
C            4.44523242670121        1.29564369619786        0.81498808782420
C            4.98469853450386        2.50302775950702        1.58151081274557
C            6.50777315687964        2.51854220684059        1.59104145739970
H            0.52899074450152       -0.75480123550143       -0.49071289740854
H            0.54607578540757        0.91656728811883       -0.41518320941791
H            0.54462117655370        0.02328442464752        0.99044054486619
H            2.74661750462281        0.09516614108445       -0.99812828723854
H            2.74514439126580       -0.85522197010272        0.49761561345317
H            2.55388122170330        1.24673089367953        1.83193984807525
H            2.55435483270078        2.19612199853775        0.33819765595510
H            4.81806710434036        1.32636056087981       -0.20988290119558
H            4.81768615984582        0.38119537858492        1.27905819042898
H            4.61624239707365        2.47479601830922        2.60864330247938
H            4.61595880804193        3.42052425791493        1.11913176260986
H            6.89802330530718        1.62245544970945        2.06700998116957
H            6.87106155473935        3.38264513204246        2.13937334365771
H            6.89770095616156        2.56782240394517        0.57746079865709

          :  Hamiltonian                  GFN2-xTB          :
         :: total energy             -20.333218296271 Eh    ::
         :: gradient norm              0.000420355083 Eh/a0 ::
         :: HOMO-LUMO gap              7.105224794307 eV    ::
         :: SCC energy               -20.630562560980 Eh    ::
         :: -> dispersion             -0.009241702440 Eh    ::
         :: repulsion energy           0.297365478680 Eh    ::

    * Orbital Energies and Occupations

         #    Occupation            Energy/Eh            Energy/eV
      -------------------------------------------------------------
         1        2.0000           -0.8983372             -24.4450
       ...           ...                  ...                  ...
         7        2.0000           -0.7258694             -19.7519
         8        2.0000           -0.6954862             -18.9251
         9        2.0000           -0.6900726             -18.7778
        10        2.0000           -0.6687183             -18.1967
        11        2.0000           -0.6468571             -17.6019
        12        2.0000           -0.6381922             -17.3661
        13        2.0000           -0.6190491             -16.8452
        14        2.0000           -0.6028052             -16.4032
        15        2.0000           -0.5851951             -15.9240
        16        2.0000           -0.5651358             -15.3781
        17        2.0000           -0.5536995             -15.0669
        18        2.0000           -0.5374868             -14.6258
        19        2.0000           -0.5293924             -14.4055 (HOMO)
        20                         -0.2682802              -7.3003 (LUMO)
        21                         -0.1648278              -4.4852
        22                         -0.1058779              -2.8811
        23                         -0.1044785              -2.8430
        24                         -0.0606900              -1.6515
        25                         -0.0367114              -0.9990
        26                         -0.0183021              -0.4980
        27                         -0.0043981              -0.1197
        28                          0.0162204               0.4414
        29                          0.0375683               1.0223
        30                          0.0392536               1.0681
       ...                                ...                  ...
        38                          0.1990962               5.4177
      -------------------------------------------------------------
                  HL-Gap            0.2611122 Eh            7.1052 eV

     #   Z          covCN         q      C6AA      α(0)
     1   7 N        3.482    -0.128    23.766     7.241
     2   6 C        3.731    -0.034    21.271     6.583
     3   6 C        3.803    -0.081    22.046     6.685
     4   6 C        3.804    -0.068    21.792     6.646
     5   6 C        3.801    -0.058    21.615     6.619
     6   6 C        3.753    -0.112    22.707     6.795
     7   1 H        0.859     0.270     0.810     1.410
     8   1 H        0.859     0.272     0.801     1.402
     9   1 H        0.859     0.272     0.801     1.402
    10   1 H        0.924     0.107     1.723     2.053
    11   1 H        0.924     0.107     1.723     2.053
    12   1 H        0.924     0.062     2.181     2.309
    13   1 H        0.924     0.062     2.181     2.309
    14   1 H        0.924     0.051     2.305     2.374
    15   1 H        0.924     0.051     2.304     2.374
    16   1 H        0.924     0.041     2.431     2.438
    17   1 H        0.924     0.041     2.431     2.438
    18   1 H        0.925     0.045     2.385     2.415
    19   1 H        0.925     0.054     2.272     2.357
    20   1 H        0.925     0.045     2.385     2.415

Wiberg/Mayer (AO) data.
largest (>0.10) Wiberg bond orders for each atom

     #   Z sym  total        # sym  WBO       # sym  WBO       # sym  WBO
 ---------------------------------------------------------------------------
     1   7 N    3.675 --     2 C    0.919     7 H    0.913     9 H    0.910
                             8 H    0.910
     2   6 C    3.884 --     3 C    1.008    11 H    0.967    10 H    0.967
                             1 N    0.919
     3   6 C    3.979 --     2 C    1.008     4 C    0.994    12 H    0.972
                            13 H    0.972
     4   6 C    3.987 --     5 C    1.004     3 C    0.994    15 H    0.976
                            14 H    0.976
     5   6 C    3.994 --     6 C    1.019     4 C    1.004    16 H    0.978
                            17 H    0.978
     6   6 C    3.992 --     5 C    1.019    18 H    0.987    20 H    0.987
                            19 H    0.985
     7   1 H    0.927 --     1 N    0.913
     8   1 H    0.926 --     1 N    0.910
     9   1 H    0.926 --     1 N    0.910
    10   1 H    0.989 --     2 C    0.967
    11   1 H    0.989 --     2 C    0.967
    12   1 H    0.996 --     3 C    0.972
    13   1 H    0.996 --     3 C    0.972
    14   1 H    0.997 --     4 C    0.976
    15   1 H    0.997 --     4 C    0.976
    16   1 H    0.998 --     5 C    0.978
    17   1 H    0.998 --     5 C    0.978
    18   1 H    0.998 --     6 C    0.987
    19   1 H    0.997 --     6 C    0.985
    20   1 H    0.998 --     6 C    0.987
 ---------------------------------------------------------------------------

molecular dipole:
                 x           y           z       tot (Debye)
 q only:        2.748       0.484       0.288
   full:        2.408       0.391       0.229       6.227

           -------------------------------------------------
          | TOTAL ENERGY              -20.333218296271 Eh   |
          | GRADIENT NORM               0.000420355083 Eh/α |
          | HOMO-LUMO GAP               7.105224794307 eV   |
           -------------------------------------------------

 * finished run on 2023/01/23 at 14:15:12.605
