   * xtb version 6.5.1 (fef0646) compiled by 'conda@b96dff2e9fd6' on 2023-01-04
          program call               : xtb init.xyz --opt -c 0 -u 0 -P 16 --alpb water

   ID    Z sym.   atoms
    1    7 N      1
    2    6 C      2-5
    3   17 Cl     6
    4    1 H      7-16

      * Solvation model:               ALPB
        Solvent                        water
        Solvent mass                       1.8000E+01 g/mol
          :  Hamiltonian                  GFN2-xTB          :
 * total energy  :   -21.1249580 Eh     change       -0.9764847E-09 Eh
 * total energy  :   -21.1298149 Eh     change       -0.4856866E-02 Eh
 * total energy  :   -21.1310762 Eh     change       -0.1261252E-02 Eh
 * total energy  :   -21.1316454 Eh     change       -0.5692186E-03 Eh
 * total energy  :   -21.1320648 Eh     change       -0.4194093E-03 Eh
 * total energy  :   -21.1325436 Eh     change       -0.4788615E-03 Eh
 * total energy  :   -21.1333727 Eh     change       -0.8290262E-03 Eh
 * total energy  :   -21.1339445 Eh     change       -0.5718598E-03 Eh
 * total energy  :   -21.1342012 Eh     change       -0.2566295E-03 Eh
 * total energy  :   -21.1344124 Eh     change       -0.2112360E-03 Eh
 * total energy  :   -21.1345468 Eh     change       -0.4356504E-04 Eh
 * total energy  :   -21.1345723 Eh     change       -0.2549653E-04 Eh
 * total energy  :   -21.1345867 Eh     change       -0.1438972E-04 Eh
 * total energy  :   -21.1345940 Eh     change       -0.7272154E-05 Eh
 * total energy  :   -21.1346020 Eh     change       -0.7983316E-05 Eh
 * total energy  :   -21.1346081 Eh     change       -0.6150724E-05 Eh
 * total energy  :   -21.1346149 Eh     change       -0.6738658E-05 Eh
 * total energy  :   -21.1346208 Eh     change       -0.5939494E-05 Eh
 * total energy  :   -21.1346236 Eh     change       -0.2759917E-05 Eh
   *** GEOMETRY OPTIMIZATION CONVERGED AFTER 20 ITERATIONS ***

 final structure:
================
16
 xtb: 6.5.1 (fef0646)
N            1.10376842948057        0.33073865042836        0.03083775853071
C            2.57339879119648        0.19180579753235        0.03106094355338
C            3.25184520212780        1.55885054579062       -0.05315835341295
C            4.74244311753591        1.41253245623482       -0.08551983273186
C            5.56838594540458        2.01576818307094        0.74838632603646
Cl          -0.18401037813360       -2.42697227063429        0.07247030925209
H            0.64807304124193       -0.61780999658411        0.05730937372777
H            0.78145370720325        0.80195680634337       -0.81800965833599
H            0.78429942294784        0.85291832024676        0.85033661626234
H            2.86206999497953       -0.42945098962290       -0.81657793401515
H            2.87450120216173       -0.32509830864111        0.94179684196228
H            2.96950418886749        2.17667409575083        0.79935268065476
H            2.93674039143355        2.06233122663899       -0.97037966843013
H            5.12836390463757        0.76487276200703       -0.86098047834158
H            5.21329790018236        2.66803823903832        1.52951997529800
H            6.63583513873339        1.89246448240041        0.68434509998994

          :  Hamiltonian                  GFN2-xTB          :
         :: total energy             -21.134623561155 Eh    ::
         :: gradient norm              0.000416290758 Eh/a0 ::
         :: HOMO-LUMO gap              5.413051612039 eV    ::
         :: SCC energy               -21.396237693049 Eh    ::
         :: -> dispersion             -0.007913152333 Eh    ::
         :: -> Gsolv                  -0.072311673287 Eh    ::
         :: repulsion energy           0.261635807635 Eh    ::

    * Orbital Energies and Occupations

         #    Occupation            Energy/Eh            Energy/eV
      -------------------------------------------------------------
         1        2.0000           -1.0071157             -27.4050
       ...           ...                  ...                  ...
         7        2.0000           -0.5628853             -15.3169
         8        2.0000           -0.5402180             -14.7001
         9        2.0000           -0.5328168             -14.4987
        10        2.0000           -0.5066989             -13.7880
        11        2.0000           -0.4881914             -13.2844
        12        2.0000           -0.4690603             -12.7638
        13        2.0000           -0.4608288             -12.5398
        14        2.0000           -0.4378346             -11.9141
        15        2.0000           -0.4274284             -11.6309
        16        2.0000           -0.4051148             -11.0237
        17        2.0000           -0.4010407             -10.9129
        18        2.0000           -0.4010097             -10.9120
        19        2.0000           -0.3985095             -10.8440 (HOMO)
        20                         -0.1995835              -5.4309 (LUMO)
        21                         -0.0252599              -0.6874
        22                          0.0787303               2.1424
        23                          0.0909558               2.4750
        24                          0.1156090               3.1459
        25                          0.1161661               3.1610
        26                          0.1167869               3.1779
        27                          0.1186916               3.2298
        28                          0.1187181               3.2305
        29                          0.1207565               3.2860
        30                          0.1371537               3.7321
       ...                                ...                  ...
        39                          0.6261324              17.0379
      -------------------------------------------------------------
                  HL-Gap            0.1989260 Eh            5.4131 eV

     #   Z          covCN         q      C6AA      α(0)
     1   7 N        3.483    -0.166    24.587     7.364
     2   6 C        3.734    -0.021    21.036     6.546
     3   6 C        3.807    -0.085    22.109     6.694
     4   6 C        2.888    -0.034    28.838     8.804
     5   6 C        2.837    -0.105    30.644     9.072
     6  17 Cl       0.058    -0.946   124.819    17.003
     7   1 H        0.915     0.294     0.727     1.333
     8   1 H        0.859     0.298     0.720     1.330
     9   1 H        0.859     0.298     0.719     1.328
    10   1 H        0.925     0.095     1.828     2.114
    11   1 H        0.925     0.095     1.834     2.118
    12   1 H        0.925     0.073     2.051     2.239
    13   1 H        0.924     0.079     1.990     2.206
    14   1 H        0.925     0.041     2.439     2.442
    15   1 H        0.926     0.047     2.356     2.400
    16   1 H        0.926     0.036     2.497     2.471

Wiberg/Mayer (AO) data.
largest (>0.10) Wiberg bond orders for each atom

     #   Z sym  total        # sym  WBO       # sym  WBO       # sym  WBO
 ---------------------------------------------------------------------------
     1   7 N    3.647 --     2 C    0.969     9 H    0.896     8 H    0.896
                             7 H    0.830
     2   6 C    3.931 --     3 C    0.997    11 H    0.969     1 N    0.969
                            10 H    0.968
     3   6 C    3.990 --     4 C    1.022     2 C    0.997    12 H    0.970
                            13 H    0.955
     4   6 C    3.991 --     5 C    1.983     3 C    1.022    14 H    0.966
     5   6 C    3.991 --     4 C    1.983    16 H    0.977    15 H    0.974
     6  17 Cl   0.105
     7   1 H    0.913 --     1 N    0.830
     8   1 H    0.911 --     1 N    0.896
     9   1 H    0.911 --     1 N    0.896
    10   1 H    0.991 --     2 C    0.968
    11   1 H    0.991 --     2 C    0.969
    12   1 H    0.995 --     3 C    0.970
    13   1 H    0.994 --     3 C    0.955
    14   1 H    0.998 --     4 C    0.966
    15   1 H    0.998 --     5 C    0.974
    16   1 H    0.998 --     5 C    0.977
 ---------------------------------------------------------------------------

molecular dipole:
                 x           y           z       tot (Debye)
 q only:        2.388       4.974      -0.120
   full:        1.988       4.337      -0.116      12.130

           -------------------------------------------------
          | TOTAL ENERGY              -21.134623561155 Eh   |
          | GRADIENT NORM               0.000416290758 Eh/α |
          | HOMO-LUMO GAP               5.413051612039 eV   |
           -------------------------------------------------

 * finished run on 2023/01/24 at 15:54:45.939
