   * xtb version 6.5.1 (fef0646) compiled by 'conda@b96dff2e9fd6' on 2023-01-04
          program call               : xtb init.xyz --opt -c 1 -u 0 -P 16

   ID    Z sym.   atoms
    1    7 N      1
    2    6 C      2-7, 9-11
    3    8 O      8
    4    1 H      12-25

          :  Hamiltonian                  GFN2-xTB          :
 * total energy  :   -32.9540785 Eh     change       -0.1719940E-09 Eh
 * total energy  :   -32.9567525 Eh     change       -0.2673956E-02 Eh
 * total energy  :   -32.9574885 Eh     change       -0.7360568E-03 Eh
 * total energy  :   -32.9578056 Eh     change       -0.3170557E-03 Eh
 * total energy  :   -32.9582081 Eh     change       -0.4025154E-03 Eh
 * total energy  :   -32.9585558 Eh     change       -0.3477148E-03 Eh
 * total energy  :   -32.9589649 Eh     change       -0.4091076E-03 Eh
 * total energy  :   -32.9593136 Eh     change       -0.3486793E-03 Eh
 * total energy  :   -32.9596018 Eh     change       -0.2882022E-03 Eh
 * total energy  :   -32.9598322 Eh     change       -0.2304612E-03 Eh
 * total energy  :   -32.9610563 Eh     change       -0.9302431E-04 Eh
 * total energy  :   -32.9611157 Eh     change       -0.5940170E-04 Eh
 * total energy  :   -32.9611564 Eh     change       -0.4067391E-04 Eh
 * total energy  :   -32.9611765 Eh     change       -0.2012604E-04 Eh
 * total energy  :   -32.9611998 Eh     change       -0.2328391E-04 Eh
 * total energy  :   -32.9612205 Eh     change       -0.2065628E-04 Eh
 * total energy  :   -32.9612282 Eh     change       -0.7703575E-05 Eh
 * total energy  :   -32.9612390 Eh     change       -0.1083798E-04 Eh
 * total energy  :   -32.9612422 Eh     change       -0.3217396E-05 Eh
   *** GEOMETRY OPTIMIZATION CONVERGED AFTER 26 ITERATIONS ***

 final structure:
================
25
 xtb: 6.5.1 (fef0646)
N            3.16846851951561        1.46921298346025        2.21746776607289
C            2.49277059027378        0.15535077819721        2.42810141411916
C            2.92776911907785       -0.78005805407498        1.29612799786334
C            4.43332037714804       -0.83556014749661        1.27123347264629
C            5.12976590408702       -1.75594423335481        2.04246601586226
C            6.51074124928668       -1.74939566829350        2.09587496099406
C            7.23852030014167       -0.79717251913050        1.37829345598985
O            8.57524402653764       -0.68526107657637        1.36907330607371
C            9.35708753090840       -1.61412793190378        2.09260619625100
C            6.54248260828999        0.12847178502127        0.59266714461896
C            5.16306712440054        0.11256048386852        0.54480020116752
H            3.24195213944068        2.02118308385518        3.07655794923664
H            2.67925763960181        2.02290354141109        1.50594685790783
H            4.12580958233386        1.22099845135960        1.83929896635190
H            1.41208957501234        0.29040535103758        2.45227560408155
H            2.82336271365110       -0.25023185481548        3.38482435252711
H            2.53948963776825       -0.42014027412315        0.34237422352330
H            2.50998243822155       -1.76882033868907        1.47645616905195
H            4.58559573280073       -2.50265943228739        2.60096065163581
H            7.01448929439958       -2.49253494358290        2.69153570275581
H           10.39065085210873       -1.32869426829824        1.90938745466974
H            9.19445572437584       -2.63453849215219        1.73629675314831
H            9.15108946781351       -1.55904466049943        3.16522596787914
H            7.11171563967089        0.83964170849643        0.01670977678510
H            4.66137221313383        0.78084572857075       -0.14464236121257

          :  Hamiltonian                  GFN2-xTB          :
         :: total energy             -32.961242212938 Eh    ::
         :: gradient norm              0.000497162786 Eh/a0 ::
         :: HOMO-LUMO gap              3.855782404444 eV    ::
         :: SCC energy               -33.455302569282 Eh    ::
         :: -> dispersion             -0.018962063533 Eh    ::
         :: repulsion energy           0.494000319317 Eh    ::

    * Orbital Energies and Occupations

         #    Occupation            Energy/Eh            Energy/eV
      -------------------------------------------------------------
         1        2.0000           -0.8791291             -23.9223
       ...           ...                  ...                  ...
        18        2.0000           -0.6495290             -17.6746
        19        2.0000           -0.6318059             -17.1923
        20        2.0000           -0.6186330             -16.8339
        21        2.0000           -0.6178042             -16.8113
        22        2.0000           -0.6037149             -16.4279
        23        2.0000           -0.6005250             -16.3411
        24        2.0000           -0.5917500             -16.1023
        25        2.0000           -0.5731441             -15.5960
        26        2.0000           -0.5642543             -15.3541
        27        2.0000           -0.5627242             -15.3125
        28        2.0000           -0.5404319             -14.7059
        29        2.0000           -0.5347440             -14.5511
        30        2.0000           -0.4975027             -13.5377 (HOMO)
        31                         -0.3558053              -9.6820 (LUMO)
        32                         -0.3446632              -9.3788
        33                         -0.2404522              -6.5430
        34                         -0.2220751              -6.0430
        35                         -0.1389133              -3.7800
        36                         -0.0856513              -2.3307
        37                         -0.0775923              -2.1114
        38                         -0.0738004              -2.0082
        39                         -0.0476792              -1.2974
        40                         -0.0324957              -0.8843
        41                         -0.0036872              -0.1003
       ...                                ...                  ...
        58                          0.5335686              14.5191
      -------------------------------------------------------------
                  HL-Gap            0.1416974 Eh            3.8558 eV

     #   Z          covCN         q      C6AA      α(0)
     1   7 N        3.482    -0.145    24.137     7.297
     2   6 C        3.735    -0.030    21.192     6.570
     3   6 C        3.809    -0.091    22.226     6.711
     4   6 C        2.970    -0.021    28.524     8.760
     5   6 C        2.921    -0.039    28.971     8.827
     6   6 C        2.916    -0.062    29.532     8.911
     7   6 C        2.864     0.155    24.637     8.136
     8   8 O        1.706    -0.242    18.006     5.729
     9   6 C        3.644     0.025    20.491     6.507
    10   6 C        2.917    -0.056    29.401     8.892
    11   6 C        2.920    -0.067    29.660     8.931
    12   1 H        0.859     0.259     0.850     1.445
    13   1 H        0.859     0.262     0.840     1.436
    14   1 H        0.856     0.280     0.777     1.381
    15   1 H        0.925     0.101     1.772     2.082
    16   1 H        0.924     0.102     1.765     2.078
    17   1 H        0.924     0.070     2.086     2.259
    18   1 H        0.925     0.092     1.856     2.130
    19   1 H        0.926     0.051     2.302     2.373
    20   1 H        0.926     0.059     2.205     2.322
    21   1 H        0.925     0.082     1.955     2.187
    22   1 H        0.924     0.056     2.244     2.343
    23   1 H        0.924     0.052     2.300     2.372
    24   1 H        0.926     0.067     2.120     2.277
    25   1 H        0.925     0.038     2.473     2.459

Wiberg/Mayer (AO) data.
largest (>0.10) Wiberg bond orders for each atom

     #   Z sym  total        # sym  WBO       # sym  WBO       # sym  WBO
 ---------------------------------------------------------------------------
     1   7 N    3.663 --     2 C    0.935    12 H    0.919    13 H    0.917
                            14 H    0.828
     2   6 C    3.899 --     3 C    0.993    16 H    0.969    15 H    0.969
                             1 N    0.935
     3   6 C    3.979 --     4 C    1.006     2 C    0.993    17 H    0.969
                            18 H    0.961
     4   6 C    3.983 --     5 C    1.407    11 C    1.357     3 C    1.006
     5   6 C    3.991 --     6 C    1.459     4 C    1.407    19 H    0.967
                            10 C    0.102
     6   6 C    3.989 --     5 C    1.459     7 C    1.345    20 H    0.964
     7   6 C    3.941 --     6 C    1.345    10 C    1.333     8 O    1.117
     8   8 O    2.287 --     7 C    1.117     9 C    0.970
     9   6 C    3.930 --    21 H    0.977    23 H    0.976    22 H    0.976
                             8 O    0.970
    10   6 C    3.987 --    11 C    1.461     7 C    1.333    24 H    0.966
                             5 C    0.102
    11   6 C    3.989 --    10 C    1.461     4 C    1.357    25 H    0.959
    12   1 H    0.933 --     1 N    0.919
    13   1 H    0.931 --     1 N    0.917
    14   1 H    0.922 --     1 N    0.828
    15   1 H    0.988 --     2 C    0.969
    16   1 H    0.990 --     2 C    0.969
    17   1 H    0.995 --     3 C    0.969
    18   1 H    0.991 --     3 C    0.961
    19   1 H    0.997 --     5 C    0.967
    20   1 H    0.996 --     6 C    0.964
    21   1 H    0.993 --     9 C    0.977
    22   1 H    0.997 --     9 C    0.976
    23   1 H    0.997 --     9 C    0.976
    24   1 H    0.995 --    10 C    0.966
    25   1 H    0.998 --    11 C    0.959
 ---------------------------------------------------------------------------

molecular dipole:
                 x           y           z       tot (Debye)
 q only:        7.109       1.341       4.318
   full:        7.140       1.425       4.392      21.612

           -------------------------------------------------
          | TOTAL ENERGY              -32.961242212938 Eh   |
          | GRADIENT NORM               0.000497162786 Eh/α |
          | HOMO-LUMO GAP               3.855782404444 eV   |
           -------------------------------------------------

 * finished run on 2023/01/23 at 14:08:27.820
