   * xtb version 6.5.1 (fef0646) compiled by 'conda@b96dff2e9fd6' on 2023-01-04
          program call               : xtb init.xyz --opt -c 0 -u 0 -P 16 --input xtb.inp

   ID    Z sym.   atoms
    1    7 N      1
    2    6 C      2-7
    3   17 Cl     8
    4    1 H      9-16

          :  Hamiltonian                  GFN2-xTB          :
 * total energy  :   -24.3556293 Eh     change       -0.8531593E-09 Eh
 * total energy  :   -24.3630066 Eh     change       -0.7377351E-02 Eh
 * total energy  :   -24.3691580 Eh     change       -0.6151406E-02 Eh
 * total energy  :   -24.3734795 Eh     change       -0.4321497E-02 Eh
 * total energy  :   -24.3777529 Eh     change       -0.4273423E-02 Eh
 * total energy  :   -24.3794513 Eh     change       -0.1698367E-02 Eh
 * total energy  :   -24.3798337 Eh     change       -0.3824089E-03 Eh
 * total energy  :   -24.3803014 Eh     change       -0.4677025E-03 Eh
 * total energy  :   -24.3803955 Eh     change       -0.9407623E-04 Eh
 * total energy  :   -24.3804578 Eh     change       -0.6233558E-04 Eh
 * total energy  :   -24.3807378 Eh     change       -0.4111176E-04 Eh
 * total energy  :   -24.3807696 Eh     change       -0.3184727E-04 Eh
 * total energy  :   -24.3807849 Eh     change       -0.1529229E-04 Eh
 * total energy  :   -24.3807942 Eh     change       -0.9279153E-05 Eh
 * total energy  :   -24.3808088 Eh     change       -0.1459120E-04 Eh
 * total energy  :   -24.3808171 Eh     change       -0.8281825E-05 Eh
 * total energy  :   -24.3808242 Eh     change       -0.7134398E-05 Eh
 * total energy  :   -24.3808308 Eh     change       -0.6629069E-05 Eh
 * total energy  :   -24.3808343 Eh     change       -0.3477909E-05 Eh
   *** GEOMETRY OPTIMIZATION CONVERGED AFTER 24 ITERATIONS ***

 final structure:
================
16
 xtb: 6.5.1 (fef0646)
N            2.17574730798005        0.05793809870864       -0.34621468090250
C            0.76972456248433        0.03104675694619       -0.31424719708910
C            0.09405528025915       -1.17016037940069       -0.13068074679839
C           -1.28444923387452       -1.18164819192884       -0.02891698819872
C           -2.00189033449879       -0.00020227028156       -0.10971756489532
C           -1.33080488711162        1.19736027346236       -0.29177672884685
C            0.04724502678996        1.21664957074427       -0.39454383210907
Cl           3.29757068356199        0.51771866651515        2.40075713130659
H            2.59587575175627       -0.81921609058681       -0.62417976635885
H            2.75436813760537        0.30945485911631        1.19820963340916
H            2.55888491806530        0.84455590362450       -0.85353171900761
H            0.65440181608876       -2.09163397160504       -0.06442316451662
H           -1.80061197769660       -2.11937082151383        0.11332241973382
H           -3.07812748868807       -0.01244304276252       -0.03069667317565
H           -1.88283642111415        2.12321670324065       -0.35459248750937
H            0.57222685839082        2.15065393572236       -0.53328763504130

          :  Hamiltonian                  GFN2-xTB          :
         :: total energy             -24.380834311695 Eh    ::
         :: gradient norm              0.000358757247 Eh/a0 ::
         :: HOMO-LUMO gap              4.216825893907 eV    ::
         :: SCC energy               -24.735933679073 Eh    ::
         :: -> dispersion             -0.012107672211 Eh    ::
         :: repulsion energy           0.355051113422 Eh    ::

    * Orbital Energies and Occupations

         #    Occupation            Energy/Eh            Energy/eV
      -------------------------------------------------------------
         1        2.0000           -1.0306142             -28.0444
       ...           ...                  ...                  ...
        10        2.0000           -0.5265479             -14.3281
        11        2.0000           -0.5169709             -14.0675
        12        2.0000           -0.4916090             -13.3774
        13        2.0000           -0.4901184             -13.3368
        14        2.0000           -0.4838561             -13.1664
        15        2.0000           -0.4835727             -13.1587
        16        2.0000           -0.4465940             -12.1524
        17        2.0000           -0.4376540             -11.9092
        18        2.0000           -0.4292504             -11.6805
        19        2.0000           -0.4102021             -11.1622
        20        2.0000           -0.4073427             -11.0844
        21        2.0000           -0.4072519             -11.0819
        22        2.0000           -0.3832105             -10.4277 (HOMO)
        23                         -0.2282450              -6.2109 (LUMO)
        24                         -0.2212885              -6.0216
        25                         -0.0960578              -2.6139
        26                         -0.0643325              -1.7506
        27                          0.0236878               0.6446
        28                          0.0509004               1.3851
        29                          0.0510158               1.3882
        30                          0.0570218               1.5516
        31                          0.0570239               1.5517
        32                          0.1093555               2.9757
        33                          0.1373218               3.7367
       ...                                ...                  ...
        45                          0.6614888              18.0000
      -------------------------------------------------------------
                  HL-Gap            0.1549655 Eh            4.2168 eV

     #   Z          covCN         q      C6AA      α(0)
     1   7 N        2.648    -0.286    27.391     7.773
     2   6 C        2.902     0.073    26.372     8.420
     3   6 C        2.923    -0.054    29.345     8.883
     4   6 C        2.920    -0.027    28.678     8.782
     5   6 C        2.919    -0.038    28.953     8.824
     6   6 C        2.920    -0.027    28.675     8.781
     7   6 C        2.923    -0.054    29.343     8.883
     8  17 Cl       0.841    -0.439   113.481    16.297
     9   1 H        0.860     0.175     1.246     1.748
    10   1 H        0.851     0.334     0.621     1.235
    11   1 H        0.860     0.175     1.243     1.746
    12   1 H        0.926     0.032     2.555     2.500
    13   1 H        0.926     0.035     2.513     2.479
    14   1 H        0.926     0.033     2.540     2.492
    15   1 H        0.926     0.035     2.511     2.478
    16   1 H        0.926     0.033     2.542     2.493

Wiberg/Mayer (AO) data.
largest (>0.10) Wiberg bond orders for each atom

     #   Z sym  total        # sym  WBO       # sym  WBO       # sym  WBO
 ---------------------------------------------------------------------------
     1   7 N    3.304 --     2 C    1.080     9 H    0.950    11 H    0.950
                            10 H    0.140
     2   6 C    3.966 --     3 C    1.377     7 C    1.376     1 N    1.080
     3   6 C    3.989 --     4 C    1.451     2 C    1.377    12 H    0.968
                             6 C    0.108
     4   6 C    3.992 --     3 C    1.451     5 C    1.435    13 H    0.971
                             7 C    0.108
     5   6 C    3.990 --     4 C    1.435     6 C    1.433    14 H    0.971
     6   6 C    3.992 --     7 C    1.453     5 C    1.433    15 H    0.971
                             3 C    0.108
     7   6 C    3.989 --     6 C    1.453     2 C    1.376    16 H    0.968
                             4 C    0.108
     8  17 Cl   0.807 --    10 H    0.743
     9   1 H    0.969 --     1 N    0.950
    10   1 H    0.888 --     8 Cl   0.743     1 N    0.140
    11   1 H    0.969 --     1 N    0.950
    12   1 H    0.999 --     3 C    0.968
    13   1 H    0.998 --     4 C    0.971
    14   1 H    0.999 --     5 C    0.971
    15   1 H    0.998 --     6 C    0.971
    16   1 H    0.999 --     7 C    0.968
 ---------------------------------------------------------------------------

molecular dipole:
                 x           y           z       tot (Debye)
 q only:       -0.464      -0.249      -1.556
   full:       -0.260      -0.219      -1.408       3.682

           -------------------------------------------------
          | TOTAL ENERGY              -24.380834311695 Eh   |
          | GRADIENT NORM               0.000358757247 Eh/α |
          | HOMO-LUMO GAP               4.216825893907 eV   |
           -------------------------------------------------

 * finished run on 2023/01/23 at 18:38:31.421
