   * xtb version 6.5.1 (fef0646) compiled by 'conda@b96dff2e9fd6' on 2023-01-04
          program call               : xtb init.xyz --opt -c 0 -u 0 -P 16 --alpb water

   ID    Z sym.   atoms
    1    7 N      1
    2    6 C      2-7
    3   17 Cl     8
    4    1 H      9-16

      * Solvation model:               ALPB
        Solvent                        water
        Solvent mass                       1.8000E+01 g/mol
          :  Hamiltonian                  GFN2-xTB          :
 * total energy  :   -24.4096629 Eh     change       -0.1585150E-09 Eh
 * total energy  :   -24.4124590 Eh     change       -0.2796113E-02 Eh
 * total energy  :   -24.4129704 Eh     change       -0.5113400E-03 Eh
 * total energy  :   -24.4131474 Eh     change       -0.1770282E-03 Eh
 * total energy  :   -24.4132210 Eh     change       -0.7354760E-04 Eh
 * total energy  :   -24.4132490 Eh     change       -0.2800635E-04 Eh
 * total energy  :   -24.4132611 Eh     change       -0.1212301E-04 Eh
 * total energy  :   -24.4132810 Eh     change       -0.1991879E-04 Eh
 * total energy  :   -24.4132895 Eh     change       -0.8537490E-05 Eh
 * total energy  :   -24.4132963 Eh     change       -0.6749451E-05 Eh
 * total energy  :   -24.4132992 Eh     change       -0.2956575E-05 Eh
   *** GEOMETRY OPTIMIZATION CONVERGED AFTER 11 ITERATIONS ***

 final structure:
================
16
 xtb: 6.5.1 (fef0646)
N            2.21097613088982        0.00608236201602       -0.07512953120196
C            0.76511988719162        0.06483010327745        0.03037228108894
C            0.04081324633039       -1.11319370637005        0.12256160561764
C           -1.33930200455358       -1.06276295337949        0.21342733377468
C           -1.99244292245936        0.15956677907345        0.21212024404450
C           -1.26404551240908        1.33306473837465        0.11755844670806
C            0.11798244268601        1.28863374504206        0.02703509003186
Cl           3.04909570598446       -1.09078652690240       -2.74469779082258
H            2.61609090933963       -0.63975286216825        0.60957474928036
H            2.63158884375371        0.93461473580725        0.02310483691991
H            2.49834368619615       -0.36868237155094       -1.03085807793943
H            0.55338814993675       -2.06168761568124        0.10572879759099
H           -1.90580321965394       -1.97825520536704        0.28191766026528
H           -3.06840347736105        0.19558161911669        0.27969484268664
H           -1.77127118130313        2.28497121524282        0.11192507635991
H            0.68099931543164        2.20491594346896       -0.05327556440485

          :  Hamiltonian                  GFN2-xTB          :
         :: total energy             -24.413299249417 Eh    ::
         :: gradient norm              0.000306503037 Eh/a0 ::
         :: HOMO-LUMO gap              4.615140196888 eV    ::
         :: SCC energy               -24.769925874114 Eh    ::
         :: -> dispersion             -0.011542174173 Eh    ::
         :: -> Gsolv                  -0.066809509820 Eh    ::
         :: repulsion energy           0.356585989790 Eh    ::

    * Orbital Energies and Occupations

         #    Occupation            Energy/Eh            Energy/eV
      -------------------------------------------------------------
         1        2.0000           -1.0097213             -27.4759
       ...           ...                  ...                  ...
        10        2.0000           -0.5511352             -14.9972
        11        2.0000           -0.5168653             -14.0646
        12        2.0000           -0.4939501             -13.4411
        13        2.0000           -0.4891124             -13.3094
        14        2.0000           -0.4810849             -13.0910
        15        2.0000           -0.4803628             -13.0713
        16        2.0000           -0.4386250             -11.9356
        17        2.0000           -0.4269929             -11.6191
        18        2.0000           -0.4156515             -11.3105
        19        2.0000           -0.4104085             -11.1678
        20        2.0000           -0.4019210             -10.9368
        21        2.0000           -0.4017488             -10.9321
        22        2.0000           -0.3991970             -10.8627 (HOMO)
        23                         -0.2295937              -6.2476 (LUMO)
        24                         -0.2287952              -6.2258
        25                         -0.0991511              -2.6980
        26                         -0.0224594              -0.6112
        27                          0.0773278               2.1042
        28                          0.0978799               2.6634
        29                          0.1125903               3.0637
        30                          0.1127080               3.0669
        31                          0.1152956               3.1374
        32                          0.1153018               3.1375
        33                          0.1365594               3.7160
       ...                                ...                  ...
        45                          0.6596112              17.9489
      -------------------------------------------------------------
                  HL-Gap            0.1696033 Eh            4.6151 eV

     #   Z          covCN         q      C6AA      α(0)
     1   7 N        3.486    -0.176    24.803     7.397
     2   6 C        2.904     0.078    26.269     8.404
     3   6 C        2.921    -0.044    29.086     8.844
     4   6 C        2.921    -0.029    28.718     8.788
     5   6 C        2.919    -0.034    28.852     8.808
     6   6 C        2.921    -0.030    28.751     8.793
     7   6 C        2.921    -0.048    29.182     8.859
     8  17 Cl       0.102    -0.931   124.264    16.966
     9   1 H        0.859     0.309     0.688     1.299
    10   1 H        0.859     0.303     0.704     1.314
    11   1 H        0.957     0.309     0.682     1.291
    12   1 H        0.926     0.066     2.130     2.282
    13   1 H        0.926     0.051     2.313     2.378
    14   1 H        0.926     0.048     2.341     2.393
    15   1 H        0.926     0.056     2.252     2.347
    16   1 H        0.926     0.072     2.058     2.244

Wiberg/Mayer (AO) data.
largest (>0.10) Wiberg bond orders for each atom

     #   Z sym  total        # sym  WBO       # sym  WBO       # sym  WBO
 ---------------------------------------------------------------------------
     1   7 N    3.639 --     2 C    0.978    10 H    0.890     9 H    0.883
                            11 H    0.792
     2   6 C    3.944 --     7 C    1.418     3 C    1.408     1 N    0.978
                             5 C    0.106
     3   6 C    3.989 --     4 C    1.445     2 C    1.408    12 H    0.965
                             6 C    0.114
     4   6 C    3.991 --     3 C    1.445     5 C    1.436    13 H    0.970
                             7 C    0.112
     5   6 C    3.991 --     6 C    1.445     4 C    1.436    14 H    0.970
                             2 C    0.106
     6   6 C    3.991 --     5 C    1.445     7 C    1.435    15 H    0.969
                             3 C    0.114
     7   6 C    3.988 --     6 C    1.435     2 C    1.418    16 H    0.963
                             4 C    0.112
     8  17 Cl   0.132
     9   1 H    0.904 --     1 N    0.883
    10   1 H    0.908 --     1 N    0.890
    11   1 H    0.905 --     1 N    0.792
    12   1 H    0.996 --     3 C    0.965
    13   1 H    0.997 --     4 C    0.970
    14   1 H    0.997 --     5 C    0.970
    15   1 H    0.997 --     6 C    0.969
    16   1 H    0.995 --     7 C    0.963
 ---------------------------------------------------------------------------

molecular dipole:
                 x           y           z       tot (Debye)
 q only:       -1.720       1.934       4.650
   full:       -1.419       1.648       3.974      11.514

           -------------------------------------------------
          | TOTAL ENERGY              -24.413299249417 Eh   |
          | GRADIENT NORM               0.000306503037 Eh/α |
          | HOMO-LUMO GAP               4.615140196888 eV   |
           -------------------------------------------------

 * finished run on 2023/01/24 at 15:09:03.902
