   * xtb version 6.5.1 (fef0646) compiled by 'conda@b96dff2e9fd6' on 2023-01-04
          program call               : xtb init.xyz --opt -c 0 -u 0 -P 16 --input xtb.inp

   ID    Z sym.   atoms
    1    7 N      1, 24, 26
    2    6 C      2-21, 23, 27
    3   16 S      22, 25, 28, 29
    4   17 Cl     30
    5    1 H      31-50

          :  Hamiltonian                  GFN2-xTB          :
 * total energy  :   -83.5649507 Eh     change       -0.2889081E-08 Eh
 * total energy  :   -83.5853111 Eh     change       -0.2036042E-01 Eh
 * total energy  :   -83.5951566 Eh     change       -0.9845468E-02 Eh
 * total energy  :   -83.5994242 Eh     change       -0.4267595E-02 Eh
 * total energy  :   -83.6030907 Eh     change       -0.3666503E-02 Eh
 * total energy  :   -83.6055791 Eh     change       -0.2488438E-02 Eh
 * total energy  :   -83.6075831 Eh     change       -0.2004036E-02 Eh
 * total energy  :   -83.6090603 Eh     change       -0.1477131E-02 Eh
 * total energy  :   -83.6096211 Eh     change       -0.5608257E-03 Eh
 * total energy  :   -83.6099262 Eh     change       -0.3050730E-03 Eh
 * total energy  :   -83.6144835 Eh     change       -0.1291124E-04 Eh
 * total energy  :   -83.6144937 Eh     change       -0.1016197E-04 Eh
 * total energy  :   -83.6145010 Eh     change       -0.7340337E-05 Eh
 * total energy  :   -83.6145095 Eh     change       -0.8522770E-05 Eh
 * total energy  :   -83.6145207 Eh     change       -0.1115674E-04 Eh
 * total energy  :   -83.6145291 Eh     change       -0.8377249E-05 Eh
 * total energy  :   -83.6145349 Eh     change       -0.5826668E-05 Eh
 * total energy  :   -83.6145400 Eh     change       -0.5136915E-05 Eh
 * total energy  :   -83.6145422 Eh     change       -0.2174965E-05 Eh
   *** GEOMETRY OPTIMIZATION CONVERGED AFTER 68 ITERATIONS ***

 final structure:
================
50
 xtb: 6.5.1 (fef0646)
N            2.02495403400055        1.19684430549410        1.59943900004269
C            3.16730322236904        1.22409538991439        0.69685151224397
C            4.10097411938147        2.42987004393369        0.91251734440083
C            5.25090549629976        2.39110488995844       -0.03165088606616
C            5.45085133592663        3.13471832958438       -1.15541523238654
C            6.63341806081791        2.80614253516724       -1.84142944249981
C            7.34408609621790        1.79860871158491       -1.24334275936341
C            8.57595317187231        1.21701622778402       -1.65968369363948
C            9.29530322876294        0.22356923227564       -1.04237653972903
C           10.47781349748633       -0.12989309638813       -1.71135591553770
C           11.40904491479968       -1.15544017844646       -1.15042011230015
C           10.66820112251989        0.60696753130629       -2.86743639263288
C           11.71834872435518        0.55199844892491       -3.85009391975828
C           12.54294988671238       -0.53987256803999       -4.06584927427521
C           13.55110034203943       -0.55736061940807       -5.03493511473987
C           13.80954373983237        0.50783048826604       -5.87898489224786
C           14.83901324745145        0.50993917232168       -6.88981208994904
C           15.36942519443675       -0.53513674065781       -7.61434744886244
C           14.92852785624910       -1.96172293444010       -7.55524695293678
C           16.37896143719616       -0.10391821999358       -8.50521026160436
C           16.60683656586955        1.23367915046096       -8.45449736697569
S           15.57790136529010        2.02368042946002       -7.33474755107449
C           12.98968372767348        1.65017992597081       -5.69187076008421
N           13.04047894297583        2.79049171605729       -6.37655691543835
S           11.90442757832180        3.78425194806862       -5.82682106949357
N           11.28731371791721        2.81984658771927       -4.69630692954978
C           11.95016745583968        1.66649003551861       -4.70021840417299
S            9.38388054253746        1.76331088656309       -3.09513872289940
S            6.53507012187701        1.24700835982675        0.19850296967071
Cl           0.28713414120706       -1.12130989273124        1.03738403726280
H            1.09468757202961       -0.06100311734679        1.29030604458027
H            1.45628404268535        2.03011066540054        1.48923824091577
H            2.32911170209202        1.14006467400478        2.56592326774259
H            2.78599902700641        1.23659500217838       -0.32643978122331
H            3.73102531889006        0.29971920851898        0.84004943639562
H            4.46578874947029        2.41534095001723        1.94382219386235
H            3.54285408925811        3.35676095764409        0.75545019821434
H            4.77166724797808        3.90334660971130       -1.47980010145792
H            6.96343490704206        3.28788385605632       -2.74428788746741
H            8.97525451742095       -0.23767255115414       -0.12366719243216
H           11.21931727789760       -1.27291081266149       -0.08573207055018
H           12.44675806350419       -0.85997090518151       -1.29118232009231
H           11.25384924285739       -2.12462544041760       -1.62570400213960
H           12.39911152869077       -1.43429871759334       -3.48447125371624
H           14.16426842659380       -1.44090169447334       -5.10237191835168
H           13.86570566787496       -2.03328114682992       -7.33413722802058
H           15.48041119835802       -2.50782493487740       -6.78900948498172
H           15.12250807429329       -2.44346567334791       -8.51138115318318
H           16.90910701303060       -0.77480922256049       -9.15835144653267
H           17.31407344483819        1.80744219684649       -9.01975975700825

          :  Hamiltonian                  GFN2-xTB          :
         :: total energy             -83.614542227393 Eh    ::
         :: gradient norm              0.000300238508 Eh/a0 ::
         :: HOMO-LUMO gap              1.367976539353 eV    ::
         :: SCC energy               -84.763263762236 Eh    ::
         :: -> dispersion             -0.067022040552 Eh    ::
         :: repulsion energy           1.149372009061 Eh    ::

    * Orbital Energies and Occupations

         #    Occupation            Energy/Eh            Energy/eV
      -------------------------------------------------------------
         1        2.0000           -1.0203360             -27.7648
       ...           ...                  ...                  ...
        65        2.0000           -0.4251621             -11.5692
        66        2.0000           -0.4115385             -11.1985
        67        2.0000           -0.4107795             -11.1779
        68        2.0000           -0.4098015             -11.1513
        69        2.0000           -0.4081413             -11.1061
        70        2.0000           -0.4021341             -10.9426
        71        2.0000           -0.3995085             -10.8712
        72        2.0000           -0.3973267             -10.8118
        73        2.0000           -0.3973257             -10.8118
        74        2.0000           -0.3893613             -10.5951
        75        2.0000           -0.3860246             -10.5043
        76        2.0000           -0.3785344             -10.3004
        77        2.0000           -0.3569522              -9.7132 (HOMO)
        78                         -0.3066800              -8.3452 (LUMO)
        79                         -0.2735241              -7.4430
        80                         -0.2504076              -6.8139
        81                         -0.2273807              -6.1873
        82                         -0.2190456              -5.9605
        83                         -0.2167761              -5.8988
        84                         -0.2113476              -5.7511
        85                         -0.1976069              -5.3772
        86                         -0.1958134              -5.3284
        87                         -0.1879909              -5.1155
        88                         -0.1738996              -4.7320
       ...                                ...                  ...
       165                          0.7275020              19.7963
      -------------------------------------------------------------
                  HL-Gap            0.0502722 Eh            1.3680 eV

     #   Z          covCN         q      C6AA      α(0)
     1   7 N        2.666    -0.309    27.947     7.851
     2   6 C        3.733     0.003    20.625     6.482
     3   6 C        3.825    -0.068    21.778     6.640
     4   6 C        2.987     0.017    27.628     8.622
     5   6 C        3.108    -0.053    29.173     8.849
     6   6 C        3.105    -0.052    29.146     8.846
     7   6 C        3.023     0.021    27.507     8.603
     8   6 C        3.016     0.017    27.619     8.621
     9   6 C        3.110    -0.060    29.346     8.875
    10   6 C        3.127    -0.000    27.835     8.638
    11   6 C        3.755    -0.103    22.530     6.768
    12   6 C        2.995     0.012    27.728     8.638
    13   6 C        3.001    -0.004    28.111     8.697
    14   6 C        2.923    -0.045    29.129     8.851
    15   6 C        2.923    -0.044    29.100     8.846
    16   6 C        2.997    -0.004    28.100     8.696
    17   6 C        2.997     0.010    27.787     8.647
    18   6 C        3.140    -0.003    27.856     8.637
    19   6 C        3.755    -0.103    22.516     6.766
    20   6 C        3.119    -0.054    29.170     8.846
    21   6 C        2.934    -0.023    28.584     8.768
    22  16 S        2.336    -0.014   141.631    20.030
    23   6 C        3.353     0.072    23.717     7.666
    24   7 N        1.863    -0.261    27.630     7.791
    25  16 S        2.670     0.330   128.326    19.066
    26   7 N        1.886    -0.260    27.623     7.791
    27   6 C        3.352     0.072    23.736     7.672
    28  16 S        2.383    -0.025   142.106    20.064
    29  16 S        2.352    -0.051   143.187    20.140
    30  17 Cl       0.839    -0.466   114.457    16.367
    31   1 H        0.876     0.331     0.625     1.238
    32   1 H        0.860     0.166     1.294     1.782
    33   1 H        0.860     0.167     1.289     1.778
    34   1 H        0.924     0.057     2.239     2.340
    35   1 H        0.924     0.061     2.189     2.314
    36   1 H        0.924     0.047     2.356     2.401
    37   1 H        0.924     0.044     2.391     2.418
    38   1 H        0.926     0.037     2.491     2.468
    39   1 H        0.926     0.046     2.373     2.409
    40   1 H        0.926     0.041     2.433     2.439
    41   1 H        0.925     0.049     2.335     2.390
    42   1 H        0.925     0.047     2.359     2.402
    43   1 H        0.924     0.047     2.360     2.402
    44   1 H        0.926     0.046     2.371     2.408
    45   1 H        0.926     0.045     2.386     2.416
    46   1 H        0.925     0.045     2.386     2.416
    47   1 H        0.924     0.045     2.380     2.412
    48   1 H        0.925     0.047     2.353     2.399
    49   1 H        0.926     0.036     2.499     2.472
    50   1 H        0.926     0.045     2.377     2.411

Wiberg/Mayer (AO) data.
largest (>0.10) Wiberg bond orders for each atom

     #   Z sym  total        # sym  WBO       # sym  WBO       # sym  WBO
 ---------------------------------------------------------------------------
     1   7 N    3.223 --     2 C    1.014    32 H    0.958    33 H    0.958
                            31 H    0.181
     2   6 C    3.970 --     1 N    1.014     3 C    0.977    34 H    0.974
                            35 H    0.973
     3   6 C    3.996 --     4 C    1.026     2 C    0.977    37 H    0.970
                            36 H    0.967
     4   6 C    3.925 --     5 C    1.574    29 S    1.154     3 C    1.026
     5   6 C    3.984 --     4 C    1.574     6 C    1.299    38 H    0.964
     6   6 C    3.970 --     7 C    1.509     5 C    1.299    39 H    0.961
     7   6 C    3.948 --     6 C    1.509     8 C    1.162    29 S    1.115
     8   6 C    3.934 --     9 C    1.473     7 C    1.162    28 S    1.138
     9   6 C    3.978 --     8 C    1.473    10 C    1.319    40 H    0.961
    10   6 C    3.952 --    12 C    1.447     9 C    1.319    11 C    1.024
    11   6 C    3.995 --    10 C    1.024    41 H    0.981    42 H    0.975
                            43 H    0.966
    12   6 C    3.933 --    10 C    1.447    13 C    1.141    28 S    1.129
    13   6 C    3.953 --    14 C    1.435    27 C    1.187    12 C    1.141
    14   6 C    3.977 --    13 C    1.435    15 C    1.359    44 H    0.964
    15   6 C    3.989 --    16 C    1.444    14 C    1.359    45 H    0.965
    16   6 C    3.944 --    15 C    1.444    23 C    1.192    17 C    1.122
    17   6 C    3.946 --    18 C    1.489    22 S    1.131    16 C    1.122
    18   6 C    3.952 --    17 C    1.489    20 C    1.275    19 C    1.024
    19   6 C    3.996 --    18 C    1.024    48 H    0.980    46 H    0.977
                            47 H    0.966
    20   6 C    3.983 --    21 C    1.601    18 C    1.275    49 H    0.965
    21   6 C    3.930 --    20 C    1.601    22 S    1.212    50 H    0.970
    22  16 S    2.643 --    21 C    1.212    17 C    1.131
    23   6 C    3.973 --    24 N    1.392    16 C    1.192    27 C    1.171
    24   7 N    3.098 --    25 S    1.424    23 C    1.392    26 N    0.163
    25  16 S    3.171 --    24 N    1.424    26 N    1.414
    26   7 N    3.112 --    25 S    1.414    27 C    1.396    24 N    0.163
    27   6 C    3.971 --    26 N    1.396    13 C    1.187    23 C    1.171
    28  16 S    2.630 --     8 C    1.138    12 C    1.129
    29  16 S    2.566 --     4 C    1.154     7 C    1.115
    30  17 Cl   0.783 --    31 H    0.706
    31   1 H    0.890 --    30 Cl   0.706     1 N    0.181
    32   1 H    0.972 --     1 N    0.958
    33   1 H    0.972 --     1 N    0.958
    34   1 H    0.997 --     2 C    0.974
    35   1 H    0.996 --     2 C    0.973
    36   1 H    0.996 --     3 C    0.967
    37   1 H    0.998 --     3 C    0.970
    38   1 H    0.998 --     5 C    0.964
    39   1 H    0.998 --     6 C    0.961
    40   1 H    0.998 --     9 C    0.961
    41   1 H    0.997 --    11 C    0.981
    42   1 H    0.997 --    11 C    0.975
    43   1 H    0.996 --    11 C    0.966
    44   1 H    0.996 --    14 C    0.964
    45   1 H    0.996 --    15 C    0.965
    46   1 H    0.997 --    19 C    0.977
    47   1 H    0.996 --    19 C    0.966
    48   1 H    0.997 --    19 C    0.980
    49   1 H    0.998 --    20 C    0.965
    50   1 H    0.997 --    21 C    0.970
 ---------------------------------------------------------------------------

molecular dipole:
                 x           y           z       tot (Debye)
 q only:        1.224       1.049       0.369
   full:        1.240       0.610       0.337       3.616

           -------------------------------------------------
          | TOTAL ENERGY              -83.614542227393 Eh   |
          | GRADIENT NORM               0.000300238508 Eh/α |
          | HOMO-LUMO GAP               1.367976539353 eV   |
           -------------------------------------------------

 * finished run on 2023/01/23 at 19:20:35.581
