   * xtb version 6.5.1 (fef0646) compiled by 'conda@b96dff2e9fd6' on 2023-01-04
          program call               : xtb init.xyz --opt -c 1 -u 0 -P 16 --alpb water

   ID    Z sym.   atoms
    1    7 N      1
    2    6 C      2-10
    3    1 H      11-22

      * Solvation model:               ALPB
        Solvent                        water
        Solvent mass                       1.8000E+01 g/mol
          :  Hamiltonian                  GFN2-xTB          :
 * total energy  :   -27.9402981 Eh     change       -0.1045635E-09 Eh
 * total energy  :   -27.9424685 Eh     change       -0.2170460E-02 Eh
 * total energy  :   -27.9427477 Eh     change       -0.2792331E-03 Eh
 * total energy  :   -27.9428412 Eh     change       -0.9340288E-04 Eh
 * total energy  :   -27.9429175 Eh     change       -0.7631450E-04 Eh
 * total energy  :   -27.9429820 Eh     change       -0.6449295E-04 Eh
 * total energy  :   -27.9430481 Eh     change       -0.6618728E-04 Eh
 * total energy  :   -27.9431003 Eh     change       -0.5211526E-04 Eh
 * total energy  :   -27.9431307 Eh     change       -0.3045261E-04 Eh
 * total energy  :   -27.9431412 Eh     change       -0.1045240E-04 Eh
 * total energy  :   -27.9431520 Eh     change       -0.1084976E-04 Eh
 * total energy  :   -27.9431602 Eh     change       -0.8153113E-05 Eh
 * total energy  :   -27.9431667 Eh     change       -0.6482981E-05 Eh
 * total energy  :   -27.9431727 Eh     change       -0.6097821E-05 Eh
 * total energy  :   -27.9431803 Eh     change       -0.7571297E-05 Eh
 * total energy  :   -27.9431883 Eh     change       -0.7978054E-05 Eh
 * total energy  :   -27.9431947 Eh     change       -0.6406207E-05 Eh
 * total energy  :   -27.9432003 Eh     change       -0.5630814E-05 Eh
 * total energy  :   -27.9432049 Eh     change       -0.4602346E-05 Eh
   *** GEOMETRY OPTIMIZATION CONVERGED AFTER 19 ITERATIONS ***

 final structure:
================
22
 xtb: 6.5.1 (fef0646)
N            1.63750781817873        0.92358850876731       -0.71914857226114
C            2.60310183854306        0.00088364394853       -0.05875742869405
C            3.08144485175109        0.57643083824069        1.23678583489955
C            4.36491036515135        0.80874158948798        1.50107503223114
C            4.90342736153896        1.34849582998582        2.74239081846900
C            4.19010992653835        1.34305666722947        3.94194828506049
C            4.74449303248929        1.86985675276317        5.09267286766687
C            6.01814091055157        2.41574998697447        5.07013532643385
C            6.73999270828864        2.42302381918906        3.88750031300237
C            6.19081485760623        1.88881201805847        2.73783326042234
H            1.28776645571810        0.51653746448066       -1.59419037608560
H            2.09453022339906        1.81903779315449       -0.92870265301760
H            0.84107308438798        1.10640377498833       -0.09696239353018
H            3.44639554221349       -0.17589028431196       -0.72549652678119
H            2.10095432641168       -0.94990364627230        0.13140119032212
H            2.32159063791487        0.78934458986605        1.97344196481786
H            5.10994933587791        0.60560970237286        0.74214397323655
H            3.20588351229304        0.90447899606207        3.98795531755457
H            4.18532922260203        1.85294912521984        6.01674687405402
H            6.44896874119327        2.82670428074208        5.97121629639900
H            7.73543853802633        2.84210768955909        3.86622721639669
H            6.76341670932440        1.89741085949359        1.82159337940330

          :  Hamiltonian                  GFN2-xTB          :
         :: total energy             -27.943204938299 Eh    ::
         :: gradient norm              0.000210814688 Eh/a0 ::
         :: HOMO-LUMO gap              3.574948641900 eV    ::
         :: SCC energy               -28.453534818539 Eh    ::
         :: -> dispersion             -0.015610142847 Eh    ::
         :: -> Gsolv                  -0.119860501907 Eh    ::
         :: repulsion energy           0.510378512538 Eh    ::

    * Orbital Energies and Occupations

         #    Occupation            Energy/Eh            Energy/eV
      -------------------------------------------------------------
         1        2.0000           -0.6933167             -18.8661
       ...           ...                  ...                  ...
        14        2.0000           -0.5058140             -13.7639
        15        2.0000           -0.5007362             -13.6257
        16        2.0000           -0.4891854             -13.3114
        17        2.0000           -0.4851038             -13.2003
        18        2.0000           -0.4778079             -13.0018
        19        2.0000           -0.4732529             -12.8779
        20        2.0000           -0.4687352             -12.7549
        21        2.0000           -0.4471221             -12.1668
        22        2.0000           -0.4359116             -11.8618
        23        2.0000           -0.4242813             -11.5453
        24        2.0000           -0.4186148             -11.3911
        25        2.0000           -0.4041234             -10.9968
        26        2.0000           -0.3872816             -10.5385 (HOMO)
        27                         -0.2559047              -6.9635 (LUMO)
        28                         -0.2219390              -6.0393
        29                         -0.1804192              -4.9095
        30                         -0.0817671              -2.2250
        31                         -0.0383129              -1.0425
        32                          0.0554768               1.5096
        33                          0.0796896               2.1685
        34                          0.1006827               2.7397
        35                          0.1251330               3.4050
        36                          0.1291719               3.5149
        37                          0.1417080               3.8561
       ...                                ...                  ...
        52                          0.6833983              18.5962
      -------------------------------------------------------------
                  HL-Gap            0.1313769 Eh            3.5749 eV

     #   Z          covCN         q      C6AA      α(0)
     1   7 N        3.485    -0.163    24.510     7.353
     2   6 C        3.735    -0.038    21.339     6.593
     3   6 C        2.891    -0.058    29.441     8.896
     4   6 C        2.901    -0.041    29.028     8.834
     5   6 C        2.972     0.012    27.748     8.641
     6   6 C        2.923    -0.041    29.020     8.834
     7   6 C        2.918    -0.035    28.873     8.811
     8   6 C        2.920    -0.034    28.845     8.807
     9   6 C        2.917    -0.035    28.864     8.810
    10   6 C        2.928    -0.040    28.997     8.831
    11   1 H        0.859     0.317     0.664     1.276
    12   1 H        0.859     0.310     0.684     1.295
    13   1 H        0.859     0.310     0.684     1.296
    14   1 H        0.925     0.112     1.676     2.025
    15   1 H        0.924     0.122     1.601     1.979
    16   1 H        0.926     0.069     2.098     2.265
    17   1 H        0.925     0.058     2.222     2.331
    18   1 H        0.926     0.051     2.302     2.373
    19   1 H        0.926     0.031     2.574     2.509
    20   1 H        0.926     0.024     2.677     2.559
    21   1 H        0.926     0.027     2.635     2.538
    22   1 H        0.926     0.042     2.420     2.433

Wiberg/Mayer (AO) data.
largest (>0.10) Wiberg bond orders for each atom

     #   Z sym  total        # sym  WBO       # sym  WBO       # sym  WBO
 ---------------------------------------------------------------------------
     1   7 N    3.649 --     2 C    0.957    12 H    0.890    13 H    0.889
                            11 H    0.886
     2   6 C    3.928 --     3 C    1.029    14 H    0.963     1 N    0.957
                            15 H    0.950
     3   6 C    3.984 --     4 C    1.854     2 C    1.029    16 H    0.957
     4   6 C    3.988 --     3 C    1.854     5 C    1.091    17 H    0.959
     5   6 C    3.989 --    10 C    1.375     6 C    1.374     4 C    1.091
                             8 C    0.102
     6   6 C    3.989 --     7 C    1.459     5 C    1.374    18 H    0.965
                             9 C    0.106
     7   6 C    3.992 --     6 C    1.459     8 C    1.430    19 H    0.971
                            10 C    0.106
     8   6 C    3.990 --     9 C    1.432     7 C    1.430    20 H    0.972
                             5 C    0.102
     9   6 C    3.992 --    10 C    1.456     8 C    1.432    21 H    0.971
                             6 C    0.106
    10   6 C    3.988 --     9 C    1.456     5 C    1.375    22 H    0.968
                             7 C    0.106
    11   1 H    0.899 --     1 N    0.886
    12   1 H    0.904 --     1 N    0.890
    13   1 H    0.904 --     1 N    0.889
    14   1 H    0.987 --     2 C    0.963
    15   1 H    0.983 --     2 C    0.950
    16   1 H    0.995 --     3 C    0.957
    17   1 H    0.996 --     4 C    0.959
    18   1 H    0.997 --     6 C    0.965
    19   1 H    0.999 --     7 C    0.971
    20   1 H    0.999 --     8 C    0.972
    21   1 H    0.999 --     9 C    0.971
    22   1 H    0.998 --    10 C    0.968
 ---------------------------------------------------------------------------

molecular dipole:
                 x           y           z       tot (Debye)
 q only:        3.145       1.489      -1.395
   full:        3.222       1.622      -1.269       9.720

           -------------------------------------------------
          | TOTAL ENERGY              -27.943204938299 Eh   |
          | GRADIENT NORM               0.000210814688 Eh/α |
          | HOMO-LUMO GAP               3.574948641900 eV   |
           -------------------------------------------------

 * finished run on 2023/01/24 at 14:55:51.476
