   * xtb version 6.5.1 (fef0646) compiled by 'conda@b96dff2e9fd6' on 2023-01-04
          program call               : xtb init.xyz --opt -c 1 -u 0 -P 16 --input xtb.inp

   ID    Z sym.   atoms
    1    7 N      1
    2    6 C      2-10
    3    1 H      11-24

          :  Hamiltonian                  GFN2-xTB          :
 * total energy  :   -28.8813235 Eh     change       -0.2574367E-09 Eh
 * total energy  :   -28.8836121 Eh     change       -0.2288624E-02 Eh
 * total energy  :   -28.8838945 Eh     change       -0.2823753E-03 Eh
 * total energy  :   -28.8839606 Eh     change       -0.6606187E-04 Eh
 * total energy  :   -28.8840024 Eh     change       -0.4180195E-04 Eh
 * total energy  :   -28.8840218 Eh     change       -0.1938220E-04 Eh
 * total energy  :   -28.8840783 Eh     change       -0.5657213E-04 Eh
 * total energy  :   -28.8841337 Eh     change       -0.5532942E-04 Eh
 * total energy  :   -28.8841771 Eh     change       -0.4347183E-04 Eh
 * total energy  :   -28.8842267 Eh     change       -0.4959587E-04 Eh
 * total energy  :   -28.8842873 Eh     change       -0.1627099E-04 Eh
 * total energy  :   -28.8843010 Eh     change       -0.1367289E-04 Eh
 * total energy  :   -28.8843156 Eh     change       -0.1463805E-04 Eh
 * total energy  :   -28.8843341 Eh     change       -0.1846225E-04 Eh
 * total energy  :   -28.8843547 Eh     change       -0.2067560E-04 Eh
 * total energy  :   -28.8843759 Eh     change       -0.2110942E-04 Eh
 * total energy  :   -28.8843934 Eh     change       -0.1758483E-04 Eh
 * total energy  :   -28.8844038 Eh     change       -0.1035933E-04 Eh
 * total energy  :   -28.8844088 Eh     change       -0.4976784E-05 Eh
   *** GEOMETRY OPTIMIZATION CONVERGED AFTER 20 ITERATIONS ***

 final structure:
================
24
 xtb: 6.5.1 (fef0646)
N            1.05511823469235       -1.68552002200244       -1.80634863803095
C            2.54416319055416       -1.63453336152712       -1.64983682947979
C            3.00557344505071       -0.21566185406076       -1.35315040804723
C            4.54063745889727       -0.14785797461647       -1.37849694845229
C            5.07974761372514       -0.46044925439953       -2.75043890423171
C            4.95230038940229        0.46906192711108       -3.77644813703171
C            5.42743194909470        0.18681103978855       -5.04462390178034
C            6.03786871248571       -1.02990814130540       -5.30212521031975
C            6.17318943555960       -1.96007533771589       -4.28591862118066
C            5.69264311838782       -1.67786313853379       -3.01806592716407
H            0.72793009658916       -2.64288532555568       -1.98492395767520
H            0.77107449584343       -1.08559772846824       -2.59172134022073
H            0.60278907531685       -1.33275442153171       -0.95265957413974
H            3.00566273271880       -1.98284995630608       -2.57599699145009
H            2.83006112635206       -2.30688931980304       -0.84022391264266
H            2.64427797598995        0.10604606261286       -0.37516695637828
H            2.61645754015826        0.46608607871951       -2.11206454262914
H            4.94856510136560       -0.84636963363630       -0.64736237206570
H            4.84481413745421        0.85827143412261       -1.08868271797776
H            4.49402860321728        1.42693061004245       -3.57592882507530
H            5.32943118317018        0.91993730930419       -5.83015448594843
H            6.41607314981391       -1.24739474589902       -6.28872317832361
H            6.65840786821998       -2.90531955833583       -4.47714557466161
H            5.81365336594069       -2.40297468800348       -2.22492204509317

          :  Hamiltonian                  GFN2-xTB          :
         :: total energy             -28.884408777196 Eh    ::
         :: gradient norm              0.000842316172 Eh/a0 ::
         :: HOMO-LUMO gap              4.771628258869 eV    ::
         :: SCC energy               -29.381762917279 Eh    ::
         :: -> dispersion             -0.017469445910 Eh    ::
         :: repulsion energy           0.497195809300 Eh    ::

    * Orbital Energies and Occupations

         #    Occupation            Energy/Eh            Energy/eV
      -------------------------------------------------------------
         1        2.0000           -0.8959030             -24.3788
       ...           ...                  ...                  ...
        15        2.0000           -0.6334087             -17.2359
        16        2.0000           -0.6224943             -16.9389
        17        2.0000           -0.6129470             -16.6791
        18        2.0000           -0.6009476             -16.3526
        19        2.0000           -0.5920944             -16.1117
        20        2.0000           -0.5762148             -15.6796
        21        2.0000           -0.5735250             -15.6064
        22        2.0000           -0.5698938             -15.5076
        23        2.0000           -0.5674676             -15.4416
        24        2.0000           -0.5227443             -14.2246
        25        2.0000           -0.5189513             -14.1214
        26        2.0000           -0.5033500             -13.6969
        27        2.0000           -0.4997599             -13.5992 (HOMO)
        28                         -0.3244058              -8.8275 (LUMO)
        29                         -0.3217974              -8.7566
        30                         -0.2643939              -7.1945
        31                         -0.1942254              -5.2851
        32                         -0.1603698              -4.3639
        33                         -0.1009782              -2.7478
        34                         -0.1003020              -2.7294
        35                         -0.0516279              -1.4049
        36                         -0.0258776              -0.7042
        37                         -0.0110064              -0.2995
        38                         -0.0032017              -0.0871
       ...                                ...                  ...
        54                          0.5645186              15.3613
      -------------------------------------------------------------
                  HL-Gap            0.1753541 Eh            4.7716 eV

     #   Z          covCN         q      C6AA      α(0)
     1   7 N        3.483    -0.128    23.762     7.240
     2   6 C        3.732    -0.035    21.284     6.585
     3   6 C        3.803    -0.077    21.972     6.673
     4   6 C        3.809    -0.074    21.911     6.663
     5   6 C        2.970    -0.002    28.068     8.690
     6   6 C        2.924    -0.042    29.042     8.838
     7   6 C        2.919    -0.027    28.683     8.782
     8   6 C        2.920    -0.027    28.673     8.781
     9   6 C        2.919    -0.028    28.698     8.785
    10   6 C        2.924    -0.046    29.140     8.853
    11   1 H        0.859     0.269     0.812     1.412
    12   1 H        0.859     0.272     0.804     1.405
    13   1 H        0.859     0.272     0.804     1.405
    14   1 H        0.924     0.112     1.683     2.029
    15   1 H        0.924     0.106     1.731     2.058
    16   1 H        0.924     0.061     2.185     2.312
    17   1 H        0.924     0.063     2.170     2.303
    18   1 H        0.924     0.055     2.261     2.352
    19   1 H        0.924     0.072     2.060     2.244
    20   1 H        0.926     0.034     2.532     2.489
    21   1 H        0.926     0.046     2.370     2.407
    22   1 H        0.926     0.049     2.337     2.390
    23   1 H        0.926     0.045     2.377     2.411
    24   1 H        0.925     0.030     2.585     2.514

Wiberg/Mayer (AO) data.
largest (>0.10) Wiberg bond orders for each atom

     #   Z sym  total        # sym  WBO       # sym  WBO       # sym  WBO
 ---------------------------------------------------------------------------
     1   7 N    3.675 --     2 C    0.918    11 H    0.913    13 H    0.910
                            12 H    0.910
     2   6 C    3.881 --     3 C    1.009    15 H    0.967    14 H    0.961
                             1 N    0.918
     3   6 C    3.981 --     2 C    1.009     4 C    0.983    16 H    0.974
                            17 H    0.971
     4   6 C    3.986 --     5 C    1.006     3 C    0.983    18 H    0.974
                            19 H    0.965
     5   6 C    3.987 --    10 C    1.417     6 C    1.411     4 C    1.006
                             8 C    0.110
     6   6 C    3.992 --     7 C    1.448     5 C    1.411    20 H    0.969
                             9 C    0.112
     7   6 C    3.991 --     6 C    1.448     8 C    1.436    21 H    0.970
                            10 C    0.110
     8   6 C    3.991 --     9 C    1.443     7 C    1.436    22 H    0.970
                             5 C    0.110
     9   6 C    3.991 --     8 C    1.443    10 C    1.440    23 H    0.970
                             6 C    0.112
    10   6 C    3.991 --     9 C    1.440     5 C    1.417    24 H    0.969
                             7 C    0.110
    11   1 H    0.927 --     1 N    0.913
    12   1 H    0.926 --     1 N    0.910
    13   1 H    0.926 --     1 N    0.910
    14   1 H    0.988 --     2 C    0.961
    15   1 H    0.989 --     2 C    0.967
    16   1 H    0.996 --     3 C    0.974
    17   1 H    0.996 --     3 C    0.971
    18   1 H    0.997 --     4 C    0.974
    19   1 H    0.994 --     4 C    0.965
    20   1 H    0.999 --     6 C    0.969
    21   1 H    0.998 --     7 C    0.970
    22   1 H    0.997 --     8 C    0.970
    23   1 H    0.998 --     9 C    0.970
    24   1 H    0.999 --    10 C    0.969
 ---------------------------------------------------------------------------

molecular dipole:
                 x           y           z       tot (Debye)
 q only:        2.998      -2.878      -3.616
   full:        2.740      -2.930      -3.612      13.722

           -------------------------------------------------
          | TOTAL ENERGY              -28.884408777196 Eh   |
          | GRADIENT NORM               0.000842316172 Eh/α |
          | HOMO-LUMO GAP               4.771628258869 eV   |
           -------------------------------------------------

 * finished run on 2023/01/23 at 19:59:06.328
