   * xtb version 6.5.1 (fef0646) compiled by 'conda@b96dff2e9fd6' on 2023-01-04
          program call               : xtb init.xyz --opt -c 1 -u 0 -P 16 --alpb water

   ID    Z sym.   atoms
    1    7 N      1
    2    6 C      2-10
    3    1 H      11-24

      * Solvation model:               ALPB
        Solvent                        water
        Solvent mass                       1.8000E+01 g/mol
          :  Hamiltonian                  GFN2-xTB          :
 * total energy  :   -28.9925825 Eh     change       -0.3146035E-09 Eh
 * total energy  :   -28.9947826 Eh     change       -0.2200062E-02 Eh
 * total energy  :   -28.9950374 Eh     change       -0.2548467E-03 Eh
 * total energy  :   -28.9950916 Eh     change       -0.5417407E-04 Eh
 * total energy  :   -28.9951213 Eh     change       -0.2970266E-04 Eh
 * total energy  :   -28.9951376 Eh     change       -0.1624461E-04 Eh
 * total energy  :   -28.9951600 Eh     change       -0.2247642E-04 Eh
 * total energy  :   -28.9951855 Eh     change       -0.2542385E-04 Eh
 * total energy  :   -28.9952161 Eh     change       -0.3058853E-04 Eh
 * total energy  :   -28.9952534 Eh     change       -0.3732966E-04 Eh
 * total energy  :   -28.9953340 Eh     change       -0.1154958E-04 Eh
 * total energy  :   -28.9953443 Eh     change       -0.1037915E-04 Eh
 * total energy  :   -28.9953552 Eh     change       -0.1083163E-04 Eh
 * total energy  :   -28.9953676 Eh     change       -0.1238957E-04 Eh
 * total energy  :   -28.9953820 Eh     change       -0.1447515E-04 Eh
 * total energy  :   -28.9953984 Eh     change       -0.1630974E-04 Eh
 * total energy  :   -28.9954156 Eh     change       -0.1727867E-04 Eh
 * total energy  :   -28.9954309 Eh     change       -0.1527674E-04 Eh
 * total energy  :   -28.9954357 Eh     change       -0.4806174E-05 Eh
   *** GEOMETRY OPTIMIZATION CONVERGED AFTER 22 ITERATIONS ***

 final structure:
================
24
 xtb: 6.5.1 (fef0646)
N            0.94002113057222       -2.27228750112124       -0.49880180711234
C            2.42268205161291       -2.31324676501527       -0.50690364653384
C            2.99324966630021       -1.00784974063780       -1.04921005517800
C            4.52483337733671       -1.06593220615138       -1.09962888685681
C            5.01718327501271       -2.13451102978900       -2.03806505259619
C            4.82673064625381       -2.00522128135521       -3.40962654717769
C            5.26260849649823       -2.98790897885441       -4.27989212877154
C            5.90026216654158       -4.11637348150410       -3.79055934487248
C            6.09982935751491       -4.25315674596991       -2.42748546307835
C            5.65730348678958       -3.27017346288257       -1.55850368989492
H            0.55329448775983       -3.15525207897192       -0.14655566364294
H            0.58743549731172       -2.11477981900570       -1.45026127641016
H            0.60988044758469       -1.50497179763100        0.09863921502546
H            2.75783884254627       -3.14188912406491       -1.13129611656917
H            2.78236861221106       -2.47911078000667        0.50837572262978
H            2.70143797053201       -0.17202170744806       -0.41293538453250
H            2.61940088874116       -0.82544621632009       -2.05697174632236
H            4.91998994252481       -1.24998738026600       -0.09999397384732
H            4.90309113742820       -0.09868466607906       -1.43537113537776
H            4.34712945880303       -1.12159110951082       -3.80464564480979
H            5.11215722458350       -2.87368247430067       -5.34351853461330
H            6.24665458698676       -4.88158971869462       -4.46975359214904
H            6.60424768834784       -5.12719651351090       -2.04190787017261
H            5.82389956020613       -3.38547542090897       -0.49736737713596

          :  Hamiltonian                  GFN2-xTB          :
         :: total energy             -28.995435712408 Eh    ::
         :: gradient norm              0.000226594290 Eh/a0 ::
         :: HOMO-LUMO gap              4.725964642712 eV    ::
         :: SCC energy               -29.494624032942 Eh    ::
         :: -> dispersion             -0.017494884312 Eh    ::
         :: -> Gsolv                  -0.118917780553 Eh    ::
         :: repulsion energy           0.499039677051 Eh    ::

    * Orbital Energies and Occupations

         #    Occupation            Energy/Eh            Energy/eV
      -------------------------------------------------------------
         1        2.0000           -0.6921641             -18.8347
       ...           ...                  ...                  ...
        15        2.0000           -0.4993993             -13.5893
        16        2.0000           -0.4907600             -13.3543
        17        2.0000           -0.4858714             -13.2212
        18        2.0000           -0.4807867             -13.0829
        19        2.0000           -0.4737214             -12.8906
        20        2.0000           -0.4692752             -12.7696
        21        2.0000           -0.4615910             -12.5605
        22        2.0000           -0.4487174             -12.2102
        23        2.0000           -0.4392891             -11.9537
        24        2.0000           -0.4182522             -11.3812
        25        2.0000           -0.4163685             -11.3300
        26        2.0000           -0.4012318             -10.9181
        27        2.0000           -0.3940049             -10.7214 (HOMO)
        28                         -0.2203289              -5.9955 (LUMO)
        29                         -0.2195020              -5.9730
        30                         -0.0917604              -2.4969
        31                         -0.0497621              -1.3541
        32                          0.0530769               1.4443
        33                          0.0852189               2.3189
        34                          0.0942594               2.5649
        35                          0.1105011               3.0069
        36                          0.1252345               3.4078
        37                          0.1316066               3.5812
        38                          0.1473873               4.0106
       ...                                ...                  ...
        54                          0.6658606              18.1190
      -------------------------------------------------------------
                  HL-Gap            0.1736760 Eh            4.7260 eV

     #   Z          covCN         q      C6AA      α(0)
     1   7 N        3.485    -0.162    24.497     7.351
     2   6 C        3.732    -0.036    21.302     6.588
     3   6 C        3.803    -0.083    22.079     6.690
     4   6 C        3.809    -0.078    21.989     6.675
     5   6 C        2.969     0.011    27.762     8.643
     6   6 C        2.925    -0.045    29.110     8.848
     7   6 C        2.918    -0.036    28.902     8.816
     8   6 C        2.920    -0.038    28.942     8.822
     9   6 C        2.919    -0.036    28.897     8.815
    10   6 C        2.925    -0.047    29.166     8.856
    11   1 H        0.859     0.316     0.668     1.281
    12   1 H        0.859     0.308     0.690     1.301
    13   1 H        0.859     0.310     0.684     1.295
    14   1 H        0.924     0.101     1.777     2.085
    15   1 H        0.925     0.109     1.709     2.044
    16   1 H        0.924     0.073     2.056     2.242
    17   1 H        0.924     0.069     2.093     2.262
    18   1 H        0.924     0.053     2.278     2.360
    19   1 H        0.924     0.056     2.250     2.346
    20   1 H        0.926     0.044     2.401     2.423
    21   1 H        0.926     0.026     2.646     2.544
    22   1 H        0.926     0.019     2.746     2.591
    23   1 H        0.926     0.026     2.651     2.546
    24   1 H        0.926     0.041     2.436     2.441

Wiberg/Mayer (AO) data.
largest (>0.10) Wiberg bond orders for each atom

     #   Z sym  total        # sym  WBO       # sym  WBO       # sym  WBO
 ---------------------------------------------------------------------------
     1   7 N    3.653 --     2 C    0.967    12 H    0.890    13 H    0.889
                            11 H    0.887
     2   6 C    3.927 --     3 C    1.011     1 N    0.967    15 H    0.966
                            14 H    0.966
     3   6 C    3.990 --     2 C    1.011     4 C    0.991    16 H    0.972
                            17 H    0.971
     4   6 C    3.994 --     5 C    1.012     3 C    0.991    18 H    0.974
                            19 H    0.964
     5   6 C    3.988 --    10 C    1.415     6 C    1.408     4 C    1.012
                             8 C    0.110
     6   6 C    3.991 --     7 C    1.450     5 C    1.408    20 H    0.968
                             9 C    0.112
     7   6 C    3.992 --     6 C    1.450     8 C    1.435    21 H    0.971
                            10 C    0.110
     8   6 C    3.993 --     9 C    1.442     7 C    1.435    22 H    0.972
                             5 C    0.110
     9   6 C    3.992 --     8 C    1.442    10 C    1.441    23 H    0.971
                             6 C    0.112
    10   6 C    3.990 --     9 C    1.441     5 C    1.415    24 H    0.968
                             7 C    0.110
    11   1 H    0.900 --     1 N    0.887
    12   1 H    0.905 --     1 N    0.890
    13   1 H    0.904 --     1 N    0.889
    14   1 H    0.990 --     2 C    0.966
    15   1 H    0.988 --     2 C    0.966
    16   1 H    0.994 --     3 C    0.972
    17   1 H    0.995 --     3 C    0.971
    18   1 H    0.997 --     4 C    0.974
    19   1 H    0.997 --     4 C    0.964
    20   1 H    0.998 --     6 C    0.968
    21   1 H    0.999 --     7 C    0.971
    22   1 H    0.999 --     8 C    0.972
    23   1 H    0.999 --     9 C    0.971
    24   1 H    0.998 --    10 C    0.968
 ---------------------------------------------------------------------------

molecular dipole:
                 x           y           z       tot (Debye)
 q only:        1.865      -3.919      -0.719
   full:        1.905      -4.012      -0.843      11.489

           -------------------------------------------------
          | TOTAL ENERGY              -28.995435712408 Eh   |
          | GRADIENT NORM               0.000226594290 Eh/α |
          | HOMO-LUMO GAP               4.725964642712 eV   |
           -------------------------------------------------

 * finished run on 2023/01/24 at 16:00:52.293
