   * xtb version 6.5.1 (fef0646) compiled by 'conda@b96dff2e9fd6' on 2023-01-04
          program call               : xtb init.xyz --opt -c 0 -u 0 -P 16

   ID    Z sym.   atoms
    1    7 N      1
    2    6 C      2-9
    3   17 Cl     10
    4    1 H      11-22

          :  Hamiltonian                  GFN2-xTB          :
 * total energy  :   -30.6825891 Eh     change       -0.4025473E-09 Eh
 * total energy  :   -30.6897585 Eh     change       -0.7169373E-02 Eh
 * total energy  :   -30.6939425 Eh     change       -0.4183953E-02 Eh
 * total energy  :   -30.6967311 Eh     change       -0.2788620E-02 Eh
 * total energy  :   -30.6995756 Eh     change       -0.2844534E-02 Eh
 * total energy  :   -30.7012406 Eh     change       -0.1664939E-02 Eh
 * total energy  :   -30.7016215 Eh     change       -0.3809570E-03 Eh
 * total energy  :   -30.7019021 Eh     change       -0.2805621E-03 Eh
 * total energy  :   -30.7019757 Eh     change       -0.7363163E-04 Eh
 * total energy  :   -30.7020337 Eh     change       -0.5797932E-04 Eh
 * total energy  :   -30.7022700 Eh     change       -0.2883920E-04 Eh
 * total energy  :   -30.7022722 Eh     change       -0.2211785E-05 Eh
 * total energy  :   -30.7022866 Eh     change       -0.1433824E-04 Eh
 * total energy  :   -30.7023033 Eh     change       -0.1674719E-04 Eh
 * total energy  :   -30.7023136 Eh     change       -0.1025642E-04 Eh
 * total energy  :   -30.7023207 Eh     change       -0.7155365E-05 Eh
 * total energy  :   -30.7023271 Eh     change       -0.6400706E-05 Eh
 * total energy  :   -30.7023348 Eh     change       -0.7705622E-05 Eh
 * total energy  :   -30.7023373 Eh     change       -0.2439449E-05 Eh
   *** GEOMETRY OPTIMIZATION CONVERGED AFTER 24 ITERATIONS ***

 final structure:
================
22
 xtb: 6.5.1 (fef0646)
N            1.09028660445972       -0.11017349011410       -0.54370191436394
C            2.54891280170320       -0.20352204267377       -0.57429531907909
C            3.02252783579487       -1.30754503858914        0.37517098850269
C            4.52360474099106       -1.33484234223587        0.43541103387364
C            5.20402642268576       -0.46502498458873        1.27845584681766
C            6.58654403766649       -0.45839422937456        1.31632516897154
C            7.30772472039808       -1.32209588518476        0.50895026240764
C            6.63890304250254       -2.19158662343323       -0.33469982191926
C            5.25526334205991       -2.19513775841345       -0.37182935647858
Cl           0.20354946871726        0.45223158369702        2.19554255089340
H            0.75545545155681        0.63675037528731       -1.14204914203066
H            0.62254026006953        0.18720708383399        0.91479546713940
H            0.66741899589235       -0.98354181960958       -0.84082717653836
H            2.94906866795968        0.75697162096021       -0.24206292378445
H            2.93309440451521       -0.40075549029926       -1.58550108384018
H            2.64302814305791       -2.26998089906613        0.02577844026656
H            2.60809046754426       -1.11095463503027        1.36414701604234
H            4.64243666210620        0.20507175045050        1.91310126559783
H            7.10371008063582        0.22039353367841        1.97856491799921
H            8.38726294560887       -1.31887499009833        0.53914524140019
H            7.19563089533055       -2.86953943135522       -0.96520191110832
H            4.73836000874447       -2.87907628784129       -1.03062955076980

          :  Hamiltonian                  GFN2-xTB          :
         :: total energy             -30.702337278021 Eh    ::
         :: gradient norm              0.000240999048 Eh/a0 ::
         :: HOMO-LUMO gap              4.626895500273 eV    ::
         :: SCC energy               -31.145038503280 Eh    ::
         :: -> dispersion             -0.017359668825 Eh    ::
         :: repulsion energy           0.442683151868 Eh    ::

    * Orbital Energies and Occupations

         #    Occupation            Energy/Eh            Energy/eV
      -------------------------------------------------------------
         1        2.0000           -1.0182494             -27.7080
       ...           ...                  ...                  ...
        16        2.0000           -0.4876812             -13.2705
        17        2.0000           -0.4842283             -13.1765
        18        2.0000           -0.4789207             -13.0321
        19        2.0000           -0.4732352             -12.8774
        20        2.0000           -0.4668783             -12.7044
        21        2.0000           -0.4532867             -12.3346
        22        2.0000           -0.4268721             -11.6158
        23        2.0000           -0.4227568             -11.5038
        24        2.0000           -0.4060377             -11.0488
        25        2.0000           -0.4032175             -10.9721
        26        2.0000           -0.3979044             -10.8275
        27        2.0000           -0.3952171             -10.7544
        28        2.0000           -0.3948313             -10.7439 (HOMO)
        29                         -0.2247960              -6.1170 (LUMO)
        30                         -0.2242053              -6.1009
        31                         -0.0962446              -2.6189
        32                         -0.0574764              -1.5640
        33                          0.0158324               0.4308
        34                          0.0658475               1.7918
        35                          0.0663635               1.8058
        36                          0.0718422               1.9549
        37                          0.0720756               1.9613
        38                          0.0925679               2.5189
        39                          0.1010658               2.7501
       ...                                ...                  ...
        57                          0.6628156              18.0361
      -------------------------------------------------------------
                  HL-Gap            0.1700353 Eh            4.6269 eV

     #   Z          covCN         q      C6AA      α(0)
     1   7 N        2.694    -0.305    27.839     7.836
     2   6 C        3.733     0.012    20.459     6.456
     3   6 C        3.809    -0.079    22.002     6.677
     4   6 C        2.972     0.012    27.743     8.640
     5   6 C        2.925    -0.039    28.960     8.825
     6   6 C        2.919    -0.029    28.733     8.790
     7   6 C        2.920    -0.032    28.807     8.802
     8   6 C        2.919    -0.030    28.760     8.794
     9   6 C        2.925    -0.039    28.969     8.826
    10  17 Cl       0.837    -0.486   115.180    16.418
    11   1 H        0.860     0.166     1.296     1.783
    12   1 H        0.901     0.333     0.621     1.233
    13   1 H        0.860     0.168     1.287     1.777
    14   1 H        0.924     0.053     2.277     2.360
    15   1 H        0.923     0.025     2.659     2.550
    16   1 H        0.924     0.042     2.418     2.432
    17   1 H        0.925     0.069     2.093     2.262
    18   1 H        0.926     0.038     2.478     2.462
    19   1 H        0.926     0.032     2.552     2.498
    20   1 H        0.926     0.031     2.577     2.510
    21   1 H        0.926     0.030     2.582     2.513
    22   1 H        0.926     0.028     2.619     2.530

Wiberg/Mayer (AO) data.
largest (>0.10) Wiberg bond orders for each atom

     #   Z sym  total        # sym  WBO       # sym  WBO       # sym  WBO
 ---------------------------------------------------------------------------
     1   7 N    3.239 --     2 C    1.005    11 H    0.958    13 H    0.958
                            12 H    0.206
     2   6 C    3.974 --     1 N    1.005     3 C    0.990    14 H    0.974
                            15 H    0.973
     3   6 C    3.993 --     4 C    1.009     2 C    0.990    16 H    0.973
                            17 H    0.966
     4   6 C    3.989 --     9 C    1.417     5 C    1.410     3 C    1.009
                             7 C    0.110
     5   6 C    3.992 --     6 C    1.449     4 C    1.410    18 H    0.969
                             8 C    0.112
     6   6 C    3.992 --     5 C    1.449     7 C    1.436    19 H    0.971
                             9 C    0.111
     7   6 C    3.992 --     8 C    1.441     6 C    1.436    20 H    0.972
                             4 C    0.110
     8   6 C    3.993 --     9 C    1.442     7 C    1.441    21 H    0.971
                             5 C    0.112
     9   6 C    3.992 --     8 C    1.442     4 C    1.417    22 H    0.969
                             6 C    0.111
    10  17 Cl   0.767 --    12 H    0.678
    11   1 H    0.972 --     1 N    0.958
    12   1 H    0.889 --    10 Cl   0.678     1 N    0.206
    13   1 H    0.972 --     1 N    0.958
    14   1 H    0.997 --     2 C    0.974
    15   1 H    0.999 --     2 C    0.973
    16   1 H    0.998 --     3 C    0.973
    17   1 H    0.995 --     3 C    0.966
    18   1 H    0.999 --     5 C    0.969
    19   1 H    0.999 --     6 C    0.971
    20   1 H    0.999 --     7 C    0.972
    21   1 H    0.999 --     8 C    0.971
    22   1 H    0.999 --     9 C    0.969
 ---------------------------------------------------------------------------

molecular dipole:
                 x           y           z       tot (Debye)
 q only:        0.678      -0.391      -1.704
   full:        0.488      -0.337      -1.683       4.535

           -------------------------------------------------
          | TOTAL ENERGY              -30.702337278021 Eh   |
          | GRADIENT NORM               0.000240999048 Eh/α |
          | HOMO-LUMO GAP               4.626895500273 eV   |
           -------------------------------------------------

 * finished run on 2023/01/23 at 14:08:52.117
